   1   1   0   0
  0.1581021E+02  0.2817199E-09  0.2817199E-09  0.2817199E-09  0.5000000E-15
  1.000000000000000E-004
  CAR 
 unknown system                          
     81.07508100     -7.16643395  301      8.23246576      1.00000000
     -7.166  0.0000E+00  0.0000E+00
     -6.872  0.0000E+00  0.0000E+00
     -6.578  0.0000E+00  0.0000E+00
     -6.284  0.0000E+00  0.0000E+00
     -5.990  0.0000E+00  0.0000E+00
     -5.696  0.0000E+00  0.0000E+00
     -5.402  0.0000E+00  0.0000E+00
     -5.107  0.0000E+00  0.0000E+00
     -4.813 -0.6579E-34 -0.1935E-34
     -4.519 -0.2454E-24 -0.7217E-25
     -4.225 -0.1162E-16 -0.3418E-17
     -3.931 -0.7793E-11 -0.2292E-11
     -3.637 -0.8176E-07 -0.2405E-07
     -3.343 -0.1055E-04 -0.3128E-05
     -3.048  0.1670E-03  0.4600E-04
     -2.754  0.8995E-03  0.3106E-03
     -2.460  0.1432E-02  0.7317E-03
     -2.166  0.1602E-02  0.1203E-02
     -1.872  0.2039E-02  0.1803E-02
     -1.578  0.2256E-02  0.2467E-02
     -1.284  0.2393E-02  0.3170E-02
     -0.990  0.2626E-02  0.3943E-02
     -0.695  0.3296E-02  0.4912E-02
     -0.401  0.2282E-02  0.5583E-02
     -0.107  0.3963E-02  0.6749E-02
      0.187  0.3268E-02  0.7710E-02
      0.481  0.2840E-02  0.8546E-02
      0.775  0.4649E-02  0.9913E-02
      1.069  0.3553E-02  0.1096E-01
      1.364  0.3689E-02  0.1204E-01
      1.658  0.4306E-02  0.1331E-01
      1.952  0.5234E-02  0.1485E-01
      2.246  0.3098E-02  0.1576E-01
      2.540  0.5096E-02  0.1726E-01
      2.834  0.4935E-02  0.1871E-01
      3.128  0.5096E-02  0.2021E-01
      3.423  0.4585E-02  0.2156E-01
      3.717  0.4778E-02  0.2296E-01
      4.011  0.5922E-02  0.2471E-01
      4.305  0.5596E-02  0.2635E-01
      4.599  0.5245E-02  0.2789E-01
      4.893  0.4681E-02  0.2927E-01
      5.187  0.7054E-02  0.3135E-01
      5.482  0.6832E-02  0.3336E-01
      5.776  0.5473E-02  0.3497E-01
      6.070  0.5415E-02  0.3656E-01
      6.364  0.6066E-02  0.3834E-01
      6.658  0.5586E-02  0.3999E-01
      6.952  0.6820E-02  0.4199E-01
      7.246  0.6142E-02  0.4380E-01
      7.540  0.5150E-02  0.4531E-01
      7.835  0.6554E-02  0.4724E-01
      8.129  0.6630E-02  0.4919E-01
      8.423  0.7542E-02  0.5141E-01
      8.717  0.6611E-02  0.5335E-01
      9.011  0.4833E-02  0.5478E-01
      9.305  0.7542E-02  0.5699E-01
      9.599  0.9015E-02  0.5965E-01
      9.894  0.5696E-02  0.6132E-01
     10.188  0.7299E-02  0.6347E-01
     10.482  0.6042E-02  0.6525E-01
     10.776  0.7757E-02  0.6753E-01
     11.070  0.8708E-02  0.7009E-01
     11.364  0.7700E-02  0.7235E-01
     11.658  0.6088E-02  0.7414E-01
     11.953  0.8411E-02  0.7662E-01
     12.247  0.7939E-02  0.7895E-01
     12.541  0.8537E-02  0.8146E-01
     12.835  0.8226E-02  0.8388E-01
     13.129  0.8272E-02  0.8632E-01
     13.423  0.6907E-02  0.8835E-01
     13.717  0.1089E-01  0.9155E-01
     14.012  0.9469E-02  0.9434E-01
     14.306  0.7651E-02  0.9659E-01
     14.600  0.1049E-01  0.9967E-01
     14.894  0.9857E-02  0.1026E+00
     15.188  0.7670E-02  0.1048E+00
     15.482  0.7961E-02  0.1072E+00
     15.776  0.1149E-01  0.1105E+00
     16.070  0.7734E-02  0.1128E+00
     16.365  0.7222E-02  0.1149E+00
     16.659  0.9412E-02  0.1177E+00
     16.953  0.8849E-02  0.1203E+00
     17.247  0.9288E-02  0.1231E+00
     17.541  0.8404E-02  0.1255E+00
     17.835  0.7091E-02  0.1276E+00
     18.129  0.1071E-01  0.1308E+00
     18.424  0.9316E-02  0.1335E+00
     18.718  0.8126E-02  0.1359E+00
     19.012  0.1036E-01  0.1389E+00
     19.306  0.7742E-02  0.1412E+00
     19.600  0.1092E-01  0.1444E+00
     19.894  0.1188E-01  0.1479E+00
     20.188  0.9588E-02  0.1507E+00
     20.483  0.1206E-01  0.1543E+00
     20.777  0.1090E-01  0.1575E+00
     21.071  0.9398E-02  0.1603E+00
     21.365  0.1049E-01  0.1633E+00
     21.659  0.1002E-01  0.1663E+00
     21.953  0.1129E-01  0.1696E+00
     22.247  0.1058E-01  0.1727E+00
     22.542  0.1023E-01  0.1757E+00
     22.836  0.7338E-02  0.1779E+00
     23.130  0.9332E-02  0.1806E+00
     23.424  0.1334E-01  0.1846E+00
     23.718  0.1067E-01  0.1877E+00
     24.012  0.1382E-01  0.1918E+00
     24.306  0.1108E-01  0.1950E+00
     24.601  0.8281E-02  0.1974E+00
     24.895  0.8129E-02  0.1998E+00
     25.189  0.1640E-01  0.2047E+00
     25.483  0.1285E-01  0.2084E+00
     25.777  0.1042E-01  0.2115E+00
     26.071  0.1154E-01  0.2149E+00
     26.365  0.1332E-01  0.2188E+00
     26.659  0.1073E-01  0.2220E+00
     26.954  0.1221E-01  0.2256E+00
     27.248  0.1325E-01  0.2295E+00
     27.542  0.1143E-01  0.2328E+00
     27.836  0.1351E-01  0.2368E+00
     28.130  0.7111E-02  0.2389E+00
     28.424  0.1370E-01  0.2429E+00
     28.718  0.1151E-01  0.2463E+00
     29.013  0.1244E-01  0.2500E+00
     29.307  0.1234E-01  0.2536E+00
     29.601  0.1397E-01  0.2577E+00
     29.895  0.1415E-01  0.2619E+00
     30.189  0.1129E-01  0.2652E+00
     30.483  0.1018E-01  0.2682E+00
     30.777  0.1488E-01  0.2726E+00
     31.072  0.1414E-01  0.2767E+00
     31.366  0.1283E-01  0.2805E+00
     31.660  0.1430E-01  0.2847E+00
     31.954  0.1376E-01  0.2887E+00
     32.248  0.1016E-01  0.2917E+00
     32.542  0.1356E-01  0.2957E+00
     32.836  0.1551E-01  0.3003E+00
     33.131  0.1524E-01  0.3048E+00
     33.425  0.1156E-01  0.3082E+00
     33.719  0.1618E-01  0.3129E+00
     34.013  0.1091E-01  0.3161E+00
     34.307  0.1161E-01  0.3195E+00
     34.601  0.1078E-01  0.3227E+00
     34.895  0.6956E-02  0.3248E+00
     35.189  0.6706E-02  0.3267E+00
     35.484  0.1084E-01  0.3299E+00
     35.778  0.8502E-02  0.3324E+00
     36.072  0.4908E-02  0.3339E+00
     36.366  0.4572E-02  0.3352E+00
     36.660  0.6121E-02  0.3370E+00
     36.954  0.5547E-02  0.3386E+00
     37.248  0.1972E-02  0.3392E+00
     37.543  0.5074E-02  0.3407E+00
     37.837  0.1512E-01  0.3452E+00
     38.131  0.9916E-02  0.3481E+00
     38.425  0.6073E-02  0.3499E+00
     38.719  0.6291E-02  0.3517E+00
     39.013  0.1132E-01  0.3551E+00
     39.307  0.8455E-02  0.3575E+00
     39.602  0.7244E-02  0.3597E+00
     39.896  0.1244E-01  0.3633E+00
     40.190  0.1323E-01  0.3672E+00
     40.484  0.1137E-01  0.3706E+00
     40.778  0.1236E-01  0.3742E+00
     41.072  0.1789E-01  0.3795E+00
     41.366  0.1349E-01  0.3834E+00
     41.661  0.1673E-01  0.3883E+00
     41.955  0.1384E-01  0.3924E+00
     42.249  0.1629E-01  0.3972E+00
     42.543  0.1469E-01  0.4015E+00
     42.837  0.1704E-01  0.4065E+00
     43.131  0.1348E-01  0.4105E+00
     43.425  0.1824E-01  0.4159E+00
     43.720  0.1607E-01  0.4206E+00
     44.014  0.1552E-01  0.4252E+00
     44.308  0.1799E-01  0.4305E+00
     44.602  0.1844E-01  0.4359E+00
     44.896  0.1434E-01  0.4401E+00
     45.190  0.1667E-01  0.4450E+00
     45.484  0.1411E-01  0.4492E+00
     45.778  0.1173E-01  0.4526E+00
     46.073  0.1326E-01  0.4565E+00
     46.367  0.1666E-01  0.4614E+00
     46.661  0.1300E-01  0.4652E+00
     46.955  0.1570E-01  0.4698E+00
     47.249  0.9265E-02  0.4726E+00
     47.543  0.1603E-01  0.4773E+00
     47.837  0.1701E-01  0.4823E+00
     48.132  0.1581E-01  0.4869E+00
     48.426  0.1773E-01  0.4922E+00
     48.720  0.1615E-01  0.4969E+00
     49.014  0.1421E-01  0.5011E+00
     49.308  0.1022E-01  0.5041E+00
     49.602  0.1373E-01  0.5081E+00
     49.896  0.1264E-01  0.5118E+00
     50.191  0.1758E-01  0.5170E+00
     50.485  0.1892E-01  0.5226E+00
     50.779  0.1003E-01  0.5255E+00
     51.073  0.1235E-01  0.5292E+00
     51.367  0.1899E-01  0.5347E+00
     51.661  0.1239E-01  0.5384E+00
     51.955  0.1292E-01  0.5422E+00
     52.250  0.1176E-01  0.5457E+00
     52.544  0.1310E-01  0.5495E+00
     52.838  0.1725E-01  0.5546E+00
     53.132  0.1523E-01  0.5591E+00
     53.426  0.1279E-01  0.5628E+00
     53.720  0.1588E-01  0.5675E+00
     54.014  0.8314E-02  0.5699E+00
     54.308  0.1369E-01  0.5740E+00
     54.603  0.1907E-01  0.5796E+00
     54.897  0.1437E-01  0.5838E+00
     55.191  0.1395E-01  0.5879E+00
     55.485  0.1581E-01  0.5925E+00
     55.779  0.1416E-01  0.5967E+00
     56.073  0.1706E-01  0.6017E+00
     56.367  0.1233E-01  0.6054E+00
     56.662  0.1758E-01  0.6105E+00
     56.956  0.1828E-01  0.6159E+00
     57.250  0.2136E-01  0.6222E+00
     57.544  0.2158E-01  0.6285E+00
     57.838  0.1493E-01  0.6329E+00
     58.132  0.1142E-01  0.6363E+00
     58.426  0.1938E-01  0.6420E+00
     58.721  0.1869E-01  0.6475E+00
     59.015  0.2149E-01  0.6538E+00
     59.309  0.2539E-01  0.6613E+00
     59.603  0.2251E-01  0.6679E+00
     59.897  0.2015E-01  0.6738E+00
     60.191  0.1765E-01  0.6790E+00
     60.485  0.2020E-01  0.6850E+00
     60.780  0.2580E-01  0.6926E+00
     61.074  0.2588E-01  0.7002E+00
     61.368  0.2089E-01  0.7063E+00
     61.662  0.2394E-01  0.7134E+00
     61.956  0.2932E-01  0.7220E+00
     62.250  0.2410E-01  0.7291E+00
     62.544  0.2795E-01  0.7373E+00
     62.839  0.2346E-01  0.7442E+00
     63.133  0.2186E-01  0.7506E+00
     63.427  0.2593E-01  0.7582E+00
     63.721  0.2616E-01  0.7659E+00
     64.015  0.2380E-01  0.7729E+00
     64.309  0.1832E-01  0.7783E+00
     64.603  0.1549E-01  0.7829E+00
     64.897  0.2117E-01  0.7891E+00
     65.192  0.2373E-01  0.7961E+00
     65.486  0.2125E-01  0.8023E+00
     65.780  0.2923E-01  0.8109E+00
     66.074  0.2764E-01  0.8191E+00
     66.368  0.3031E-01  0.8280E+00
     66.662  0.2653E-01  0.8358E+00
     66.956  0.2666E-01  0.8436E+00
     67.251  0.2695E-01  0.8516E+00
     67.545  0.2537E-01  0.8590E+00
     67.839  0.2538E-01  0.8665E+00
     68.133  0.1941E-01  0.8722E+00
     68.427  0.2476E-01  0.8795E+00
     68.721  0.1828E-01  0.8848E+00
     69.015  0.1678E-01  0.8898E+00
     69.310  0.1670E-01  0.8947E+00
     69.604  0.1732E-01  0.8998E+00
     69.898  0.1691E-01  0.9048E+00
     70.192  0.1430E-01  0.9090E+00
     70.486  0.1292E-01  0.9128E+00
     70.780  0.1080E-01  0.9160E+00
     71.074  0.9069E-02  0.9186E+00
     71.369  0.4958E-02  0.9201E+00
     71.663  0.4868E-02  0.9215E+00
     71.957  0.5108E-02  0.9230E+00
     72.251  0.3335E-02  0.9240E+00
     72.545  0.5201E-02  0.9255E+00
     72.839  0.4340E-02  0.9268E+00
     73.133  0.4782E-02  0.9282E+00
     73.427  0.3085E-02  0.9291E+00
     73.722  0.3113E-02  0.9300E+00
     74.016  0.1348E-02  0.9304E+00
     74.310  0.2158E-02  0.9311E+00
     74.604  0.2445E-02  0.9318E+00
     74.898  0.1975E-02  0.9324E+00
     75.192  0.2391E-02  0.9331E+00
     75.486  0.1708E-03  0.9331E+00
     75.781  0.1501E-03  0.9332E+00
     76.075  0.4412E-03  0.9333E+00
     76.369  0.1425E-03  0.9333E+00
     76.663 -0.2343E-05  0.9333E+00
     76.957  0.1985E-05  0.9333E+00
     77.251  0.1760E-04  0.9333E+00
     77.545 -0.2991E-06  0.9333E+00
     77.840 -0.3380E-07  0.9333E+00
     78.134 -0.5883E-11  0.9333E+00
     78.428 -0.1073E-16  0.9333E+00
     78.722  0.0000E+00  0.9333E+00
     79.016  0.0000E+00  0.9333E+00
     79.310  0.0000E+00  0.9333E+00
     79.604  0.0000E+00  0.9333E+00
     79.899  0.0000E+00  0.9333E+00
     80.193  0.0000E+00  0.9333E+00
     80.487  0.0000E+00  0.9333E+00
     80.781  0.0000E+00  0.9333E+00
     81.075  0.0000E+00  0.9333E+00
