       N       E                     dE             d eps       ncg     rms          rms(c)
DAV:   1    -0.412068460633E+01   -0.41207E+01   -0.69297E+02 14840   0.391E+01
DAV:   2    -0.421977633102E+01   -0.99092E-01   -0.99020E-01 14980   0.218E+00
DAV:   3    -0.421978969853E+01   -0.13368E-04   -0.13367E-04 14504   0.228E-02
DAV:   4    -0.421978969823E+01    0.30066E-09   -0.76280E-10 16912   0.469E-05
DAV:   5    -0.421978969878E+01   -0.54622E-09    0.15088E-13 14364   0.339E-08    0.948E-01
DAV:   6    -0.420169118132E+01    0.18099E-01   -0.23558E-03 12040   0.546E-02    0.584E-01
DAV:   7    -0.418992992296E+01    0.11761E-01   -0.62720E-03 13468   0.884E-02    0.242E-02
DAV:   8    -0.418992599354E+01    0.39294E-05   -0.15871E-06 12180   0.211E-03    0.597E-03
DAV:   9    -0.418992553787E+01    0.45567E-06   -0.18854E-07 17500   0.586E-04
   1 F= -.41899255E+01 E0= -.41895555E+01  d E =-.418993E+01
