LAMMPS (29 Oct 2020)
Reading data file ...
  orthogonal box = (-33.662210 -29.169340 -80.000000) to (67.324420 58.338680 80.000000)
  7 by 4 by 1 MPI processor grid
  reading atoms ...
  2745 atoms
  read_data CPU = 0.034 seconds
Reading airebo potential file CH_tensile.airebo with DATE: 2011-10-25
2745 atoms in group gra1
Neighbor list info ...
  update every 1 steps, delay 0 steps, check yes
  max neighbors/atom: 2000, page size: 100000
  master list distance cutoff = 12.2
  ghost atom cutoff = 12.2
  1 neighbor lists, perpetual/occasional/extra = 1 0 0
  (1) pair airebo, perpetual
      attributes: full, newton on, ghost
      pair build: full/nsq/ghost
      stencil: none
      bin: none
Setting up cg style minimization ...
  Unit style    : metal
  Current step  : 0
Per MPI rank memory allocation (min/avg/max) = 5.006 | 5.007 | 5.008 Mbytes
Step Temp E_pair E_mol TotEng Press 
       0            0   -20701.729            0   -20701.729   -450.44732 
      23            0   -20814.409            0   -20814.409   -74.980206 
Loop time of 0.0540081 on 28 procs for 23 steps with 2745 atoms

98.0% CPU use with 28 MPI tasks x no OpenMP threads

Minimization stats:
  Stopping criterion = energy tolerance
  Energy initial, next-to-last, final = 
     -20701.7289942355  -20814.3920894963  -20814.4090623321
  Force two-norm initial, final = 107.92979 1.0965265
  Force max component initial, final = 5.6606196 0.082194492
  Final line search alpha, max atom move = 0.56006843 0.04603454
  Iterations, force evaluations = 23 46

MPI task timing breakdown:
Section |  min time  |  avg time  |  max time  |%varavg| %total
---------------------------------------------------------------
Pair    | 0.01857    | 0.038724   | 0.05146    |   4.9 | 71.70
Neigh   | 0          | 0          | 0          |   0.0 |  0.00
Comm    | 0.00078225 | 0.012276   | 0.032067   |   9.0 | 22.73
Output  | 0          | 0          | 0          |   0.0 |  0.00
Modify  | 0          | 0          | 0          |   0.0 |  0.00
Other   |            | 0.003009   |            |       |  5.57

Nlocal:        98.0357 ave         125 max          49 min
Histogram: 2 0 1 3 1 3 4 4 6 4
Nghost:        460.250 ave         554 max         370 min
Histogram: 4 0 2 7 1 4 4 2 0 4
Neighs:        0.00000 ave           0 max           0 min
Histogram: 28 0 0 0 0 0 0 0 0 0
FullNghs:      14838.4 ave       20303 max        6681 min
Histogram: 2 0 4 1 1 6 4 0 4 6

Total # of neighbors = 415476
Ave neighs/atom = 151.35738
Neighbor list builds = 0
Dangerous builds = 0
Setting up Verlet run ...
  Unit style    : metal
  Current step  : 23
  Time step     : 0.0005
Per MPI rank memory allocation (min/avg/max) = 3.897 | 3.898 | 3.899 Mbytes
Step Temp PotEng TotEng Lx Ly Lz Pxx Pyy Pzz 
      23            0   -20814.409   -20814.409    100.98663     87.50802          160   -73.562625   -151.37799            0 
    1000   0.38016767    -20814.37   -20814.235    100.93539     87.39032          160      39.1751    27.943498            0 
    2000   0.95130923    -20813.99   -20813.652    100.94296    87.432878          160    23.971892    13.214207            0 
    3000    4.5741186   -20813.354   -20811.731    100.93637    87.361304          160    -3.858973   -33.286503            0 
    4000    11.948471   -20810.879   -20806.641    100.95735    87.417328          160    13.414057    -26.43826            0 
    5000    15.826888   -20796.889   -20791.276    101.20563     87.10439          160   -22.575683    10.217894            0 
    6000    94.604466   -20786.352   -20752.797    101.37823    87.274654          160   -292.72844    28.973122            0 
    7000    256.74178   -20780.227   -20689.164    100.97749    87.727277          160    80.372225    -50.37489            0 
    8000     302.1697   -20753.086   -20645.909    100.99403    87.685488          160    18.238913   -531.38462            0 
    9000    338.38276   -20758.587   -20638.566    101.11245    87.397749          160   -200.13013    77.139253            0 
   10000    311.73321   -20747.047   -20636.478    100.98989    87.383806          160    91.336653   -235.37253            0 
   11000    281.09912   -20736.436   -20636.733     101.1608    87.165258          160   -43.918271    223.19783            0 
   12000     288.2663   -20738.752   -20636.507    100.70214    87.681087          160    477.56665   -181.22954            0 
   13000    281.48242   -20736.982   -20637.143    100.75691    87.704011          160    400.82466   -255.07419            0 
   14000    276.18208   -20735.753   -20637.794    100.76939    87.252132          160    97.236582    79.797101            0 
   15000    289.67467   -20740.492   -20637.747    100.91279    87.321429          160     74.00545   -8.4140602            0 
   16000    288.72512   -20739.927   -20637.519    101.14088    87.565092          160   -371.25657    158.20663            0 
   17000    297.28264    -20741.91   -20636.467    100.99768    87.482274          160    46.149408   -21.402038            0 
   18000    306.24119   -20745.048   -20636.427    101.02783     87.24274          160    130.70421    173.15844            0 
   19000     311.1186   -20746.026   -20635.675    101.14886    87.452561          160   -138.28242    121.86664            0 
   20000    309.30593   -20744.903   -20635.196    101.14792    87.435511          160    43.411605   -1.6992906            0 
   21000    298.04073   -20740.868   -20635.156    101.07485    87.542164          160    133.56219   -182.21674            0 
   22000    299.23263   -20741.272   -20635.137    101.24843    87.631251          160    -89.47299    -335.4858            0 
   23000    303.55094   -20743.384   -20635.717    101.14247    87.409293          160    112.00989    122.74952            0 
   24000    288.67506   -20738.284   -20635.894    101.22691    87.333556          160    23.909097    106.36301            0 
   25000     293.5545   -20740.476   -20636.355    101.20908    87.501374          160   -16.988083    64.122096            0 
   26000    292.93276   -20740.246   -20636.345    101.10084    87.642497          160    6.5038555    9.8056974            0 
   27000    294.85205   -20740.988   -20636.407    101.13775    87.463398          160     75.83157    -35.42673            0 
   28000      300.752   -20742.855   -20636.181    101.15346    87.459225          160   -59.100695   -113.04406            0 
   29000    304.91543   -20743.948   -20635.797    101.18875    87.524893          160   -46.773625    46.853151            0 
   30000    305.09128   -20743.758   -20635.545    101.05039    87.532454          160    91.632505    9.4437956            0 
   31000    315.94411    -20747.37   -20635.308     101.0714    87.408496          160    32.658027    13.910524            0 
   32000    305.12737   -20743.719   -20635.493    101.05156    87.348141          160    131.10477    51.432762            0 
   33000    306.64706   -20744.434   -20635.669    100.92569    87.445515          160     171.4175    40.569799            0 
   34000    297.82151   -20741.646   -20636.012    101.05356    87.473439          160    10.327985   -15.785284            0 
   35000    297.73409   -20741.769   -20636.165    101.03491    87.454053          160    -43.60954    3.4586747            0 
   36000    291.11138   -20739.457   -20636.203    101.10503    87.392472          160   -56.292316     5.014843            0 
   37000    297.51398   -20741.876   -20636.351    101.06181    87.381056          160   -29.928537    35.437154            0 
   38000    297.94839    -20741.77   -20636.091    100.98726    87.475963          160    32.098996    21.446395            0 
   39000    299.12152   -20741.934   -20635.839     101.1231    87.501919          160    4.8626588    58.759729            0 
   40000    296.09141   -20740.519   -20635.499    101.08002    87.461695          160   -6.3900859    66.309131            0 
   41000    302.21323   -20742.487   -20635.295    101.12361    87.464695          160   -28.316582   -97.554614            0 
   42000    303.18278   -20742.953   -20635.417    101.11663    87.489473          160    27.960847    44.279636            0 
   43000     294.4584   -20739.903   -20635.461    101.10667    87.591715          160    70.064225   -143.63356            0 
   44000    301.27002   -20742.686   -20635.828    101.19703    87.527204          160    20.396083   -84.511286            0 
   45000    290.97038   -20739.189   -20635.985    101.17802    87.457376          160   -90.305204   -27.909805            0 
   46000    305.96056   -20744.682    -20636.16    101.16264    87.474047          160    87.779706    81.862543            0 
   47000    293.11742    -20740.27   -20636.305    101.10709    87.534176          160    58.448972   -67.529222            0 
   48000    295.90638   -20741.116   -20636.161    101.16075    87.461936          160   -55.527652   -40.152738            0 
   49000    299.73521   -20742.339   -20636.026    101.21922    87.507166          160   -156.66611   -40.970665            0 
   50000    296.37193   -20741.065   -20635.945     101.0393    87.525057          160     32.79227   -14.254577            0 
   50023    298.60589   -20741.902    -20635.99    101.05363    87.521801          160    28.939226   -20.320143            0 
Loop time of 54.1797 on 28 procs for 50000 steps with 2745 atoms

Performance: 39.867 ns/day, 0.602 hours/ns, 922.856 timesteps/s
98.8% CPU use with 28 MPI tasks x no OpenMP threads

MPI task timing breakdown:
Section |  min time  |  avg time  |  max time  |%varavg| %total
---------------------------------------------------------------
Pair    | 18.104     | 38.959     | 50.867     | 153.8 | 71.91
Neigh   | 0.012147   | 0.014742   | 0.017084   |   1.1 |  0.03
Comm    | 0.8065     | 11.244     | 33.476     | 304.6 | 20.75
Output  | 0.02237    | 0.022581   | 0.027321   |   0.6 |  0.04
Modify  | 1.9952     | 3.6408     | 7.3261     | 108.9 |  6.72
Other   |            | 0.2981     |            |       |  0.55

Nlocal:        98.0357 ave         125 max          45 min
Histogram: 2 0 1 3 2 1 5 4 2 8
Nghost:        457.357 ave         558 max         366 min
Histogram: 4 0 2 8 0 5 3 2 1 3
Neighs:        0.00000 ave           0 max           0 min
Histogram: 28 0 0 0 0 0 0 0 0 0
FullNghs:      14876.9 ave       20491 max        6099 min
Histogram: 2 0 3 3 0 6 4 0 4 6

Total # of neighbors = 416554
Ave neighs/atom = 151.75009
Neighbor list builds = 15
Dangerous builds = 0
Setting up Verlet run ...
  Unit style    : metal
  Current step  : 0
  Time step     : 0.0005
Per MPI rank memory allocation (min/avg/max) = 6.041 | 6.042 | 6.044 Mbytes
Step Temp PotEng TotEng Lx Ly Lz Pxx Pyy Pzz 
       0    298.60589   -20741.902    -20635.99    101.05363    87.521801          160    28.939226   -20.320143            0 
     100    295.56727   -20740.878   -20636.043    101.17872    87.539305          160    8.5058493    -80.92769            0 
     200     301.6619   -20742.415   -20635.418    101.15047    87.556809          160    1.5833677   -143.36641            0 
     300    294.63925   -20740.238   -20635.732    100.97289    87.574314          160    155.00724   -184.23097            0 
     400    298.94459   -20741.517   -20635.484     101.0273    87.591818          160   -19.966163   -108.59074            0 
     500    303.80332   -20743.255   -20635.499    101.08433    87.609322          160   -23.048676   -199.51904            0 
     600    296.55438     -20740.7   -20635.515    101.11758    87.626827          160    56.433237   -164.75729            0 
     700    305.05064   -20743.243   -20635.045    101.11532    87.644331          160   -53.884778   -167.72898            0 
     800    292.24011   -20739.037   -20635.382    101.00814    87.661835          160   -19.930039    -294.4586            0 
     900    299.63193   -20741.209   -20634.933    100.99253     87.67934          160   -14.198806   -340.42879            0 
    1000    303.69519   -20742.658   -20634.941    101.06987    87.696844          160   -47.677538   -236.53587            0 
    1100     285.3906   -20736.315   -20635.089    101.19236    87.714349          160   -105.21155   -298.25025            0 
    1200    301.53714    -20741.46   -20634.508     101.0434    87.731853          160     32.70571    -398.0034            0 
    1300    300.18763   -20741.149   -20634.676    100.88611    87.749357          160    178.03561   -330.53038            0 
    1400    294.56516   -20739.013   -20634.533    101.03263    87.766862          160    24.003309   -450.47826            0 
    1500    303.17857    -20741.82   -20634.285    101.05341    87.784366          160     11.34144   -500.32753            0 
    1600    298.01393    -20740.27   -20634.568    101.05184     87.80187          160   -10.180833   -379.90367            0 
    1700    301.35192   -20740.725   -20633.839    101.10328    87.819375          160   -101.71669   -481.47224            0 
    1800    293.08219   -20738.054     -20634.1    100.99371    87.836879          160    71.117524   -581.72976            0 
    1900    297.38349   -20739.376   -20633.897    100.95526    87.854383          160    30.862913   -480.30483            0 
    2000    304.19957     -20741.5   -20633.604    100.97746    87.871888          160   -1.5147851   -491.40765            0 
    2100    288.24662   -20736.109   -20633.871    101.04365    87.889392          160   -31.260763   -560.64891            0 
    2200    291.16946   -20736.681   -20633.406    101.05909    87.906896          160    34.569763   -540.10977            0 
    2300    305.78953    -20741.59    -20633.13     100.9732    87.924401          160    67.162941   -622.98945            0 
    2400    300.56195    -20739.82   -20633.213    100.96001    87.941905          160    12.364892   -749.46756            0 
    2500    293.29774   -20736.745   -20632.715    100.95593     87.95941          160   -81.634078   -657.41315            0 
    2600    301.30083   -20739.805   -20632.937      101.058    87.976914          160   -40.666457   -698.81256            0 
    2700    292.14072   -20736.175   -20632.556    101.08641    87.994418          160    53.916383   -786.15819            0 
    2800    306.17272   -20740.828   -20632.232    100.96984    88.011923          160    12.600511   -739.13956            0 
    2900    300.91221    -20739.05    -20632.32    100.87324    88.029427          160   -26.194795   -756.89587            0 
    3000    304.72592   -20739.916   -20631.833    100.93897    88.046931          160    60.637115     -811.946            0 
    3100     303.4968   -20739.759   -20632.112    101.03455    88.064436          160   -4.3950084   -717.12853            0 
    3200    304.62576   -20739.707    -20631.66     101.0505     88.08194          160   -78.180528   -778.88789            0 
    3300    301.56582   -20738.301   -20631.339     100.9614    88.099444          160   -22.475808   -899.74375            0 
    3400    299.30095   -20737.601   -20631.442    100.84616    88.116949          160    26.196096   -719.40982            0 
    3500    307.07332   -20739.771   -20630.856    100.88026    88.134453          160     84.89502   -823.99833            0 
    3600    299.47255   -20737.361   -20631.141    101.05738    88.151958          160    71.858067   -1053.0543            0 
    3700    301.68632   -20737.657   -20630.652    100.97814    88.169462          160   -29.044346   -840.90739            0 
    3800    302.25201   -20737.471   -20630.266    100.88151    88.186966          160   -35.401356   -930.69314            0 
    3900    296.00668   -20735.497   -20630.507    100.93802    88.204471          160   -7.2954553   -1110.0023            0 
    4000    301.68324   -20736.718   -20629.714    100.97315    88.221975          160     -99.1502   -1022.2275            0 
    4100    302.21219   -20737.143   -20629.952    100.95424    88.239479          160   -59.720056   -961.10073            0 
    4200    294.20786   -20734.113    -20629.76     100.8717    88.256984          160    172.08515   -1077.0694            0 
    4300    298.32926   -20735.044    -20629.23    100.95645    88.274488          160   -41.613067   -1046.9914            0 
    4400    297.67841   -20734.846   -20629.262    100.95748    88.291992          160   -137.11238   -1046.1924            0 
    4500    303.54946   -20736.511   -20628.845    100.84083    88.309497          160    79.006895   -1183.1049            0 
    4600    303.05533   -20736.193   -20628.702    100.90365    88.327001          160   -23.221973    -1186.091            0 
    4700    293.36714   -20732.723   -20628.668    101.00068    88.344505          160   -72.324415   -1080.7139            0 
    4800    302.43361   -20735.334   -20628.064    100.91347     88.36201          160    76.844742   -1184.9228            0 
    4900    307.03236   -20737.015   -20628.113    100.84699    88.379514          160    15.581598   -1212.7674            0 
    5000    300.47669   -20734.247   -20627.671    100.77929    88.397019          160    15.208194   -1163.5673            0 
    5100    303.73273   -20735.275   -20627.544    100.86581    88.414523          160    68.523626   -1192.0475            0 
    5200    297.54757   -20732.896   -20627.359    100.93352    88.432027          160    58.165237   -1236.5166            0 
    5300     294.3726     -20731.3   -20626.889    100.96084    88.449532          160   -66.641039   -1303.6099            0 
    5400    298.44744   -20732.632   -20626.776    100.84169    88.467036          160   -76.601957   -1407.5052            0 
    5500    300.32676   -20732.765   -20626.242    100.76319     88.48454          160    37.815605   -1300.2673            0 
    5600    296.56663   -20731.331   -20626.142    100.87685    88.502045          160    62.506058   -1386.9079            0 
    5700    303.59617   -20733.714   -20626.031    100.96387    88.519549          160   -59.757946   -1451.8409            0 
    5800    297.58998   -20730.799   -20625.247    100.83182    88.537053          160    88.896394    -1336.313            0 
    5900    303.72202   -20733.245   -20625.518    100.75251    88.554558          160   -25.432156   -1419.7826            0 
    6000    299.23181   -20731.101   -20624.967     100.8857    88.572062          160   -138.54233   -1520.6548            0 
    6100    294.52632   -20728.937   -20624.471    100.80551    88.589567          160    165.29592    -1419.724            0 
    6200    294.40485   -20728.949   -20624.527    100.87594    88.607071          160    56.881216   -1433.0634            0 
    6300    300.50483   -20730.537   -20623.951    100.85751    88.624575          160   -72.458438   -1468.0136            0 
    6400    298.45189   -20729.592   -20623.735    100.71131     88.64208          160    151.11698   -1626.5137            0 
    6500    292.75746   -20727.347   -20623.509    100.86404    88.659584          160   -62.028051   -1545.2698            0 
    6600    302.35271   -20730.208   -20622.966    100.84472    88.677088          160   -61.393971   -1578.3553            0 
    6700    294.48749   -20727.457   -20623.005    100.82233    88.694593          160    18.880629   -1650.2172            0 
    6800    297.04843   -20727.717   -20622.357    100.80968    88.712097          160    42.354515   -1587.2002            0 
    6900    301.09325   -20728.947   -20622.153    100.81477    88.729601          160   -34.751432   -1625.5417            0 
    7000    301.91473   -20728.989   -20621.903    100.83739    88.747106          160   -33.760391   -1851.3602            0 
    7100    302.10549   -20728.444   -20621.291    100.74008     88.76461          160    12.541224   -1621.7081            0 
    7200    301.85309   -20728.363   -20621.299    100.74196    88.782114          160    134.44655   -1618.1965            0 
    7300    301.59974   -20727.631   -20620.657    100.91765    88.799619          160   -104.33124   -1708.3697            0 
    7400    300.98749   -20727.284   -20620.527    100.78749    88.817123          160   -33.088888   -1773.8109            0 
    7500    299.13898   -20726.168   -20620.067    100.75147    88.834628          160    11.882042    -1866.814            0 
    7600    298.25945   -20725.371   -20619.582    100.64896    88.852132          160    144.82688   -1702.1687            0 
    7700    301.76877   -20726.466   -20619.432    100.80156    88.869636          160    78.229911   -1760.9625            0 
    7800    304.63949   -20726.897   -20618.845    100.92927    88.887141          160   -145.55266   -1861.2354            0 
    7900    307.94392   -20727.697   -20618.472    100.69986    88.904645          160    70.052129   -1819.3563            0 
    8000     300.9279   -20725.222   -20618.486    100.67298    88.922149          160    27.708786   -1885.6178            0 
    8100    299.60958   -20724.067   -20617.799    100.76722    88.939654          160    15.258201   -1999.3905            0 
    8200    296.26957   -20722.679   -20617.595    100.77658    88.957158          160    124.10886   -1908.9084            0 
    8300    300.73009   -20723.714   -20617.048    100.83251    88.974662          160   -104.77457   -1839.0127            0 
    8400    300.06682   -20723.054   -20616.623    100.75159    88.992167          160   -66.092386     -2003.74            0 
    8500    304.10589   -20724.216   -20616.352     100.6208    89.009671          160   -14.381915   -2100.0262            0 
    8600    302.84688   -20723.147    -20615.73    100.82702    89.027176          160   -135.61358   -1922.7645            0 
    8700    299.25963   -20721.674    -20615.53    100.70707     89.04468          160    131.55551   -1929.9162            0 
    8800    292.45908   -20719.054   -20615.322    100.77051    89.062184          160    -77.88434   -2061.6555            0 
    8900    302.04605   -20721.636   -20614.503    100.70202    89.079689          160    11.888718   -2087.1884            0 
    9000    294.31614   -20718.866   -20614.475    100.69017    89.097193          160    44.699017   -2025.6613            0 
    9100    299.92991   -20720.299   -20613.917    100.75946    89.114697          160   -30.110746   -2184.2351            0 
    9200    298.43247   -20719.439   -20613.588    100.64724    89.132202          160     147.4265   -2145.0988            0 
    9300    303.80399   -20720.921   -20613.165    100.69725    89.149706          160    17.108561   -2090.9689            0 
    9400    305.07922   -20720.839    -20612.63    100.77067     89.16721          160   -93.626558   -2196.4397            0 
    9500    298.59251   -20718.421   -20612.513    100.65215    89.184715          160    38.226188    -2250.063            0 
    9600    306.97973   -20720.569   -20611.686    100.68585    89.202219          160   -85.086646   -2275.7293            0 
    9700    294.20688   -20715.912   -20611.559    100.67368    89.219723          160   -41.359395   -2112.2111            0 
    9800    301.86714   -20718.207   -20611.137    100.67646    89.237228          160    61.375097   -2293.5628            0 
    9900    293.43039   -20714.629   -20610.552    100.77435    89.254732          160     10.04207   -2324.0767            0 
   10000    295.75988   -20715.202   -20610.299    100.61325    89.272237          160    103.19834   -2325.5033            0 
   10100    302.13804   -20716.896   -20609.731    100.56482    89.289741          160    84.607527   -2297.3049            0 
   10200    293.04597   -20713.292   -20609.352    100.63373    89.307245          160    23.956683   -2375.8504            0 
   10300    303.06964   -20716.447   -20608.952      100.761     89.32475          160   -36.937347   -2457.5108            0 
   10400    304.39933   -20716.195   -20608.227    100.75805    89.342254          160   -123.21834   -2365.7477            0 
   10500    306.23871   -20716.656   -20608.036    100.58564    89.359758          160   -50.280399   -2370.3807            0 
   10600    301.46803   -20714.409   -20607.481    100.55871    89.377263          160    32.441784   -2551.6557            0 
   10700    303.28595   -20714.656   -20607.084     100.6979    89.394767          160   -19.109498   -2440.1539            0 
   10800    294.23364   -20711.003   -20606.641    100.60723    89.412271          160    211.84946   -2348.9823            0 
   10900    296.11762   -20711.174   -20606.144    100.67198    89.429776          160    34.765134    -2527.463            0 
   11000    295.59009   -20710.452   -20605.609    100.61201     89.44728          160   -65.720966   -2581.4488            0 
   11100    301.76578   -20712.064   -20605.031    100.52184    89.464785          160    49.529295   -2501.3435            0 
   11200    300.94188   -20711.343   -20604.602    100.72049    89.482289          160   -41.210373   -2504.8249            0 
   11300    296.98767   -20709.634   -20604.295    100.64148    89.499793          160    59.596937   -2624.7723            0 
   11400    298.02486   -20709.241   -20603.535     100.5781    89.517298          160     46.30215   -2583.5912            0 
   11500    301.56569   -20710.084   -20603.121    100.56773    89.534802          160    4.6436995   -2594.4325            0 
   11600    297.34001   -20708.096   -20602.632    100.63969    89.552306          160    -121.0712   -2590.9491            0 
   11700    305.82205   -20710.471   -20601.999    100.61706    89.569811          160     23.26047    -2735.693            0 
   11800    300.82855   -20708.483   -20601.782    100.65873    89.587315          160   -105.13118   -2584.8318            0 
   11900     299.5211   -20707.272   -20601.035    100.55727    89.604819          160    40.381026   -2678.2473            0 
   12000    298.43863   -20706.589   -20600.736    100.62733    89.622324          160   -13.805277   -2837.8331            0 
   12100    298.33987   -20705.927   -20600.109    100.58742    89.639828          160      1.91087   -2760.9858            0 
   12200    297.44808   -20704.905   -20599.403    100.53984    89.657332          160    48.762246   -2653.3209            0 
   12300    294.33212   -20703.737    -20599.34    100.61203    89.674837          160    -102.0826   -2819.3232            0 
   12400    296.74597   -20703.704   -20598.452    100.57467    89.692341          160    1.7614829   -2829.3112            0 
   12500    304.85578   -20706.097   -20597.968    100.66676    89.709846          160   -83.993184   -2798.9777            0 
   12600    298.01508   -20703.375   -20597.672    100.52752     89.72735          160     20.67843    -2861.222            0 
   12700    297.06046    -20702.27   -20596.906    100.44876    89.744854          160    74.064801   -2848.6718            0 
   12800    303.66197   -20704.184   -20596.478    100.54655    89.762359          160    1.7175454   -2875.4242            0 
   12900    293.85032   -20700.004   -20595.778    100.64914    89.779863          160    24.655718   -2844.8663            0 
   13000    297.30785   -20700.701   -20595.248    100.57382    89.797367          160    25.882223   -2895.7669            0 
   13100    293.75821   -20699.082   -20594.888    100.42307    89.814872          160    101.45175   -2999.8928            0 
   13200    298.23556   -20699.845   -20594.063    100.49086    89.832376          160   -11.608394   -2972.2351            0 
   13300    297.14873   -20699.135    -20593.74    100.60439     89.84988          160   -58.957792   -2954.4585            0 
   13400    297.90476   -20698.818   -20593.155    100.60585    89.867385          160    21.039648   -3004.7507            0 
   13500    292.93206   -20696.447   -20592.547    100.52224    89.884889          160    13.303589   -3056.1794            0 
   13600    294.95174   -20696.648   -20592.032    100.47781    89.902394          160   -85.916609   -3034.8557            0 
   13700    303.87242   -20699.108   -20591.327    100.47053    89.919898          160    59.876029   -3063.2886            0 
   13800     298.7945    -20696.98   -20591.001    100.59851    89.937402          160   -42.184255   -3057.0544            0 
   13900    299.83864   -20696.585   -20590.235    100.59099    89.954907          160   -30.541899   -3145.5769            0 
   14000    302.73634   -20697.061   -20589.684    100.49011    89.972411          160    50.132702   -3055.4648            0 
   14100    295.67807   -20694.133   -20589.259    100.37884    89.989915          160    83.474257   -3185.4989            0 
   14200    300.95407   -20695.139   -20588.394    100.50839     90.00742          160   -36.636981   -3145.2895            0 
   14300    291.32904   -20691.304   -20587.973    100.56849    90.024924          160   -6.3438626   -3155.9069            0 
   14400    298.87251   -20693.356   -20587.349     100.5392    90.042428          160   -53.453564   -3160.7166            0 
   14500     302.0055   -20693.832   -20586.714    100.40892    90.059933          160    16.374304   -3263.6891            0 
   14600    297.51866   -20691.695   -20586.169    100.51553    90.077437          160   -39.207539   -3302.7786            0 
   14700    304.47575   -20693.429   -20585.435    100.49691    90.094941          160   -88.573381   -3198.7571            0 
   14800    296.76782    -20690.27   -20585.009    100.48451    90.112446          160    117.54521   -3321.9231            0 
   14900    300.76789   -20691.005   -20584.326    100.46127     90.12995          160   -44.559511   -3357.2201            0 
   15000    306.49958   -20692.153   -20583.441    100.47138    90.147455          160    27.662557   -3256.9602            0 
   15100    299.85373   -20689.585    -20583.23    100.41715    90.164959          160     111.1162   -3331.2439            0 
   15200    297.59738   -20688.039   -20582.485    100.53907    90.182463          160   -194.23839   -3482.1331            0 
   15300    302.40325   -20688.995   -20581.736    100.45131    90.199968          160    2.0910173   -3337.2723            0 
   15400    302.32902    -20688.47   -20581.237     100.3699    90.217472          160    96.911924   -3275.3436            0 
   15500    298.95995   -20686.494   -20580.456    100.51853    90.234976          160   -37.020652   -3369.8311            0 
   15600    297.28462    -20685.45   -20580.006    100.47314    90.252481          160   -22.326847   -3527.9753            0 
   15700    297.68295   -20684.748   -20579.163    100.35119    90.269985          160    95.858517   -3482.7914            0 
   15800    294.57906    -20683.09   -20578.605    100.38599    90.287489          160    34.076672   -3405.2777            0 
   15900    298.88027   -20684.186   -20578.176    100.56003    90.304994          160   -70.870695   -3562.4748            0 
   16000    299.86824   -20683.606   -20577.246    100.46088    90.322498          160    2.3010721   -3535.0617            0 
   16100     296.8198   -20681.954   -20576.675    100.39158    90.340003          160    17.358004   -3465.4987            0 
   16200     301.2165   -20682.824   -20575.986     100.3279    90.357507          160    39.159342   -3605.2214            0 
   16300     301.7016   -20682.342   -20575.331    100.35246    90.375011          160    118.71662   -3557.1162            0 
   16400    296.94104   -20680.007   -20574.685    100.51917    90.392516          160   -81.745739   -3500.4018            0 
   16500    302.69553    -20681.28   -20573.917    100.46962     90.41002          160    37.551983    -3682.164            0 
   16600    295.14044   -20678.051   -20573.367    100.35267    90.427524          160   -36.899921   -3543.6668            0 
   16700    295.70149   -20677.433   -20572.551    100.27675    90.445029          160    107.41443   -3751.0213            0 
   16800    305.70242   -20680.374   -20571.945    100.46996    90.462533          160   -49.771082   -3648.7745            0 
   16900    302.27999   -20678.751   -20571.536    100.45075    90.480037          160   -4.3848895   -3645.9751            0 
   17000     297.3591   -20676.097   -20570.627    100.37686    90.497542          160 -0.020942749   -3716.4689            0 
   17100    297.06127   -20675.272   -20569.908    100.33725    90.515046          160    -32.37956   -3769.5003            0 
   17200    303.05556   -20676.803   -20569.312    100.39355     90.53255          160   -91.485207   -3688.2809            0 
   17300    302.83003   -20675.903   -20568.492    100.38664    90.550055          160    61.122828   -3855.1844            0 
   17400     296.2818   -20673.065   -20567.977    100.41079    90.567559          160   -14.919037   -3761.2861            0 
   17500    302.86014   -20674.441   -20567.019     100.3579    90.585064          160   -63.530664   -3775.6086            0 
   17600    297.52959   -20671.917   -20566.386    100.31237    90.602568          160    71.198573   -3814.3364            0 
   17700    292.98339   -20669.801   -20565.883    100.36611    90.620072          160   -53.761673   -3897.8554            0 
   17800    305.05856   -20673.102   -20564.901     100.4174    90.637577          160    -42.19752   -3952.3027            0 
   17900    300.93614   -20671.135   -20564.396     100.3159    90.655081          160    25.394391   -3794.2515            0 
   18000    297.86467   -20669.307   -20563.657    100.37649    90.672585          160   -72.082167   -3917.0667            0 
   18100    298.65505   -20668.866   -20562.936    100.38296     90.69009          160   0.45957389   -4042.3095            0 
   18200    303.85654   -20669.828   -20562.053    100.24887    90.707594          160    78.029359   -3855.5149            0 
   18300    301.80284   -20668.459   -20561.413    100.34251    90.725098          160   -56.438247   -3959.8157            0 
   18400    298.94065   -20666.911    -20560.88    100.34677    90.742603          160     -46.4341   -4034.8553            0 
   18500    297.86998   -20665.578   -20559.926    100.29766    90.760107          160    115.84924   -4010.3708            0 
   18600    306.81405   -20668.021   -20559.197    100.39364    90.777612          160   -89.392192   -4034.0707            0 
   18700    297.59901   -20664.212   -20558.657    100.34643    90.795116          160   -73.551969   -4087.2065            0 
   18800    294.90806    -20662.34   -20557.739    100.21691     90.81262          160    41.815294   -4080.1822            0 
   18900    304.06409    -20664.84   -20556.992     100.2742    90.830125          160    61.153692   -4036.9587            0 
   19000    300.26929   -20662.712    -20556.21    100.39634    90.847629          160   -76.915067    -4047.727            0 
   19100    306.35509   -20664.147   -20555.486    100.35508    90.865133          160   -60.260069   -4186.2935            0 
   19200    298.55275   -20660.655   -20554.761    100.22918    90.882638          160    36.296053   -4161.8858            0 
   19300    303.04663   -20661.335   -20553.847    100.23689    90.900142          160    7.5834206   -4167.6393            0 
   19400    302.55487   -20660.554    -20553.24    100.31415    90.917646          160    31.430223   -4172.7057            0 
   19500    304.89972   -20660.685    -20552.54    100.36274    90.935151          160   -34.277455   -4222.6021            0 
   19600    302.90609   -20659.013   -20551.575    100.28846    90.952655          160   -22.291655   -4177.3619            0 
   19700    298.36451   -20656.814   -20550.987    100.22187    90.970159          160    24.932259   -4226.3794            0 
   19800    301.19108   -20656.996   -20550.167    100.23944    90.987664          160   -45.840214   -4275.5145            0 
   19900    301.24548   -20656.241   -20549.393    100.29254    91.005168          160   -33.427803   -4249.4674            0 
   20000    299.20525    -20654.77   -20548.645    100.32834    91.022673          160    4.1948231   -4290.7694            0 
   20100    294.30426   -20652.249   -20547.862    100.29208    91.040177          160   -74.431901   -4282.7866            0 
   20200    301.76558   -20654.082   -20547.049    100.15872    91.057681          160    100.62097   -4339.3008            0 
   20300    301.45132   -20653.022     -20546.1    100.21508    91.075186          160    80.473754   -4358.9176            0 
   20400     304.4134   -20653.284   -20545.312    100.27928     91.09269          160    65.762911   -4359.4409            0 
   20500    309.32033   -20654.396   -20544.683    100.30464    91.110194          160   -50.567882   -4323.7339            0 
   20600    297.19302   -20649.273   -20543.862    100.23099    91.127699          160   -47.212162   -4482.1865            0 
   20700    296.86446   -20648.266   -20542.971    100.26286    91.145203          160   -12.063014   -4446.8003            0 
   20800    295.71579   -20647.072   -20542.185    100.20626    91.162707          160    32.116261   -4418.3802            0 
   20900    296.48829   -20646.505   -20541.343    100.25504    91.180212          160    10.748613   -4428.8712            0 
   21000    298.87633   -20646.575   -20540.567    100.22488    91.197716          160    35.771295    -4536.742            0 
   21100     297.6671   -20645.136   -20539.556    100.20379    91.215221          160   -5.6675771   -4437.1211            0 
   21200    301.67445   -20645.898   -20538.897    100.23412    91.232725          160    44.784122   -4507.7283            0 
   21300    289.93613   -20641.015   -20538.177    100.24124    91.250229          160   -67.386572   -4577.6962            0 
   21400    290.99316   -20640.361   -20537.149    100.21574    91.267734          160   -13.135866   -4634.1019            0 
   21500    302.00847   -20643.543   -20536.424    100.17685    91.285238          160    72.364337     -4423.54            0 
   21600    300.01938   -20641.951   -20535.537    100.20901    91.302742          160    23.514529   -4589.6697            0 
   21700    300.35902   -20641.269   -20534.735    100.26569    91.320247          160   -8.7263236   -4684.1391            0 
   21800    295.77299   -20638.775   -20533.867     100.1017    91.337751          160    30.299266   -4534.9678            0 
   21900    309.06788   -20642.575   -20532.951    100.12896    91.355255          160    49.484838   -4602.0498            0 
   22000    300.88964   -20639.089   -20532.367    100.27388     91.37276          160   -56.328123   -4757.3782            0 
   22100     306.3849   -20640.006   -20531.334    100.26051    91.390264          160   -60.384481   -4677.1386            0 
   22200    309.64261   -20640.232   -20530.405    100.10609    91.407768          160    172.22847   -4635.4818            0 
   22300     305.2937   -20637.878   -20529.593    100.17178    91.425273          160   -56.872958   -4716.0198            0 
   22400    303.27775   -20636.237   -20528.668     100.0859    91.442777          160    81.353904    -4833.939            0 
   22500    301.54078   -20634.904    -20527.95    100.22277    91.460282          160    23.636053   -4710.3541            0 
   22600    302.65717   -20634.431   -20527.081     100.2633    91.477786          160   -67.227683   -4779.1381            0 
   22700    293.02095   -20629.982    -20526.05    100.16054     91.49529          160   -23.361287    -4873.129            0 
   22800    299.68472   -20631.506   -20525.211    100.14666    91.512795          160   -87.386219   -4825.7282            0 
   22900    308.20109   -20633.668   -20524.352    100.10095    91.530299          160    103.99024    -4805.041            0 
   23000    296.00336   -20628.636   -20523.646    100.21742    91.547803          160   -53.245537   -4817.7722            0 
   23100    301.32575   -20629.527   -20522.649     100.1998    91.565308          160   -38.965076   -4928.7998            0 
   23200    298.40174   -20627.527   -20521.687    100.12452    91.582812          160     24.17253   -4857.5657            0 
   23300    296.76435   -20626.202   -20520.942    100.11145    91.600316          160    -35.02751   -4903.8493            0 
   23400    299.10177   -20626.079    -20519.99    100.12911    91.617821          160    60.579847   -5003.5846            0 
   23500     298.5228   -20624.889   -20519.006    100.15935    91.635325          160   -31.060231    -4954.834            0 
   23600    296.68805   -20623.409   -20518.177     100.1579     91.65283          160     7.280224   -4864.5959            0 
   23700    297.84845   -20622.928   -20517.284    100.12233    91.670334          160   -29.686185   -5049.7881            0 
   23800    295.40561   -20621.223   -20516.446    100.12312    91.687838          160   -47.062019   -4966.3745            0 
   23900    302.23922   -20622.545   -20515.344    100.10139    91.705343          160    42.852143   -5004.3909            0 
   24000    306.64251    -20623.33   -20514.567    100.19312    91.722847          160    -84.90215   -5062.6368            0 
   24100    309.59308   -20623.312   -20513.502    100.05766    91.740351          160     153.0433   -5044.6802            0 
   24200    299.01132   -20618.763   -20512.707    100.04419    91.757856          160     79.40963   -5025.0135            0 
   24300    299.37674   -20617.971   -20511.786    100.16158     91.77536          160   -64.710131   -5136.0908            0 
   24400    298.39284    -20616.56   -20510.723    100.12243    91.792864          160   -19.366999    -5060.972            0 
   24500    295.74689   -20614.817   -20509.919    100.07594    91.810369          160    12.404895   -5139.6412            0 
   24600    300.73618   -20615.604   -20508.936     100.1106    91.827873          160   -14.269717   -5080.3156            0 
   24700     307.5975   -20617.119   -20508.018    100.12435    91.845377          160    2.0742292   -5172.5217            0 
   24800    301.57503   -20614.114   -20507.148    100.08916    91.862882          160   -39.294591   -5102.9364            0 
   24900    298.33672   -20612.049   -20506.232    100.04908    91.880386          160   -8.3932089   -5139.6274            0 
   25000    305.36908   -20613.551    -20505.24    100.08969    91.897891          160   -15.950434   -5248.5214            0 
   25100    290.57379   -20607.353    -20504.29    100.07666    91.915395          160     89.27325   -5212.2544            0 
   25200    296.72935   -20608.584   -20503.337    100.07328    91.932899          160    149.31022   -5204.3242            0 
   25300    297.40082   -20607.905    -20502.42    100.02742    91.950404          160   -24.319334   -5261.2568            0 
   25400    293.79682   -20605.614   -20501.407    100.12182    91.967908          160   -128.24623   -5256.2384            0 
   25500    297.09533    -20605.82   -20500.443     100.0164    91.985412          160    57.672615   -5246.4511            0 
   25600    303.37664   -20607.085    -20499.48    100.11148    92.002917          160   -17.713813   -5298.5836            0 
   25700    299.93597    -20604.86   -20498.476    100.09252    92.020421          160   -25.464823   -5342.3631            0 
   25800      303.324   -20604.977   -20497.391    100.03357    92.037925          160    49.873271   -5401.9108            0 
   25900    291.03001   -20599.838   -20496.613    100.00386     92.05543          160    14.483209   -5288.4899            0 
   26000     311.6829   -20606.052   -20495.501    99.998278    92.072934          160    111.06372   -5383.9986            0 
   26100    308.51314   -20604.063   -20494.636    100.15858    92.090439          160    -125.1003   -5480.0242            0 
   26200    306.28502   -20602.246    -20493.61    100.07321    92.107943          160   -96.828817   -5341.4796            0 
   26300    295.24679   -20597.406   -20492.685    100.00479    92.125447          160    51.479867   -5437.4345            0 
   26400     298.8415   -20597.597   -20491.601    99.983955    92.142952          160    41.434685   -5510.8512            0 
   26500    308.50739   -20599.939   -20490.514    100.03759    92.160456          160    44.932147   -5463.6518            0 
   26600    295.18657   -20594.384   -20489.684    100.07944     92.17796          160   -49.761028   -5496.8471            0 
   26700    300.55195   -20595.309   -20488.707     100.0377    92.195465          160   -107.27812   -5445.4011            0 
   26800     298.3595    -20593.45   -20487.625    99.991661    92.212969          160    79.945698   -5561.8851            0 
   26900    298.57489   -20592.465   -20486.564    100.00025    92.230473          160   -16.733048   -5422.6734            0 
   27000    296.78004   -20590.807   -20485.542    99.997733    92.247978          160    9.9499839   -5583.2944            0 
   27100    305.92474   -20593.159   -20484.651    100.00695    92.265482          160   -3.7613818    -5642.579            0 
   27200    307.40419   -20592.614   -20483.581    100.00863    92.282986          160    -58.40889   -5551.9476            0 
   27300    305.04231   -20590.842   -20482.646     100.0224    92.300491          160    35.752066   -5605.1558            0 
   27400    297.07577   -20586.989    -20481.62    100.00437    92.317995          160   -9.6752783   -5685.2166            0 
   27500     297.7916   -20586.045   -20480.422    99.948383      92.3355          160    39.421228   -5699.8409            0 
   27600    296.63402   -20584.691   -20479.478    99.983482    92.353004          160   -17.089832   -5564.1783            0 
   27700    301.32975   -20585.366   -20478.487    100.02508    92.370508          160    8.5131634   -5710.9764            0 
   27800    303.05895   -20584.938   -20477.446    99.980511    92.388013          160    44.413645   -5753.4283            0 
   27900    298.36988   -20582.324   -20476.496    99.979441    92.405517          160   -33.774259   -5655.1995            0 
   28000    295.50698   -20580.244   -20475.431     99.98423    92.423021          160   -65.310264   -5695.3761            0 
   28100    301.44693   -20581.332   -20474.412     99.91106    92.440526          160    106.98195   -5805.5925            0 
   28200    303.30723   -20580.946   -20473.366    99.993956     92.45803          160   -5.4630261   -5759.4374            0 
   28300    299.33302   -20578.422   -20472.252    99.969111    92.475534          160    42.849361   -5700.7034            0 
   28400    307.35059     -20580.3   -20471.286    99.968453    92.493039          160    -45.97627   -5836.0018            0 
   28500    299.77183    -20576.59   -20470.264     99.96717    92.510543          160   -11.770915   -5900.4662            0 
   28600    300.38827   -20575.613   -20469.069    99.885414    92.528048          160    111.07191   -5813.8265            0 
   28700     297.8232   -20573.764   -20468.129    100.05294    92.545552          160   -82.050277   -5739.2441            0 
   28800    305.66511   -20575.236    -20466.82    99.898633    92.563056          160    96.033259    -5954.658            0 
   28900      298.493   -20571.754   -20465.881    99.953802    92.580561          160   -83.324415   -5867.9974            0 
   29000    302.39511   -20572.173   -20464.917    99.940657    92.598065          160   -64.832858   -5865.6457            0 
   29100    299.74064    -20570.16   -20463.845    99.965135    92.615569          160   -35.520659    -5950.319            0 
   29200    299.41104   -20568.999   -20462.801     100.0075    92.633074          160   -62.953588   -5964.9155            0 
   29300     297.7507    -20567.15   -20461.541    99.877996    92.650578          160     131.5045   -5924.0382            0 
   29400     304.7708   -20568.684   -20460.585     99.91572    92.668082          160   -4.1757801   -5955.6573            0 
   29500    303.01325   -20566.978   -20459.503    99.909296    92.685587          160   -24.897659   -6065.3411            0 
   29600    293.58861   -20562.578   -20458.445    99.945124    92.703091          160    -66.93712    -6016.414            0 
   29700    302.86569   -20564.751   -20457.328    99.972774    92.720595          160   -38.904873   -5984.7313            0 
   29800    300.86077   -20562.997   -20456.285    99.903582      92.7381          160    58.264736   -6061.5021            0 
   29900     298.8132    -20561.12   -20455.134    99.884109    92.755604          160    9.5044379   -6118.5977            0 
   30000    300.05152   -20559.628   -20453.203    99.885794    92.773109          160     11.50413   -6031.8321            0 
   30100    294.93889   -20557.064   -20452.452    99.926902    92.790613          160   -20.954856   -6079.4626            0 
   30200    303.69912   -20559.261   -20451.542    99.925154    92.808117          160   -29.133258   -6126.1611            0 
   30300    299.72394    -20553.65   -20447.341     99.86204    92.825622          160    103.33923   -6093.6573            0 
   30400     299.5295   -20550.855   -20444.615    99.942643    92.843126          160   -82.492275   -6041.5349            0 
   30500    305.74019   -20552.904   -20444.461    99.929873     92.86063          160    36.892883   -6239.8025            0 
   30600    303.41551   -20551.662   -20444.044    99.903663    92.878135          160    34.336762   -6202.3221            0 
   30700    300.83939   -20549.989   -20443.285    99.894751    92.895639          160   -21.402127   -6111.7395            0 
   30800    303.34547   -20549.934    -20442.34    99.924746    92.913143          160    23.227597   -6216.5645            0 
   30900    294.91153   -20545.988   -20441.386    99.940101    92.930648          160   -91.129204   -6200.1946            0 
   31000    302.91313   -20547.706   -20440.265    99.882809    92.948152          160     85.94552   -6231.0075            0 
   31100    306.31352   -20547.691   -20439.045    99.846719    92.965657          160   -36.591966   -6221.4149            0 
   31200    292.33834   -20541.809   -20438.119    99.942078    92.983161          160   -123.15338   -6257.4894            0 
   31300    304.81008   -20539.345   -20431.232    99.959618    93.000665          160    18.747358   -6329.9361            0 
   31400    293.52877   -20535.233   -20431.121     99.90938     93.01817          160   -16.297823   -6134.7489            0 
   31500    295.32584   -20535.569    -20430.82     99.91266    93.035674          160    70.408122   -6332.1647            0 
   31600    301.51358   -20537.133    -20430.19    99.862786    93.053178          160    43.067846   -6324.4632            0 
   31700    306.42074   -20538.062   -20429.377    99.899176    93.070683          160   -32.285903   -6277.4913            0 
   31800     302.9802   -20535.919   -20428.455    99.975433    93.088187          160   -46.440705   -6351.0364            0 
   31900    298.53992   -20533.227   -20427.338    99.932334    93.105691          160   -2.1248029   -6376.7344            0 
   32000    304.65472   -20534.265   -20426.208     99.83429    93.123196          160   -1.4134015   -6322.7787            0 
   32100    294.54793   -20529.682   -20425.209    99.841181      93.1407          160    77.552422   -6389.7812            0 
   32200    301.46021   -20530.767   -20423.842     99.94252    93.158204          160   -45.364975   -6353.4534            0 
   32300    299.04782   -20528.792   -20422.723    99.862079    93.175709          160    114.61956   -6445.8505            0 
   32400    306.51526    -20530.16   -20421.442    99.928964    93.193213          160   -104.34373   -6364.2878            0 
   32500    302.17954    -20527.38     -20420.2    99.840077    93.210718          160    30.133289   -6489.9023            0 
   32600    301.46228   -20525.994   -20419.069    99.902161    93.228222          160   -55.215335   -6440.7033            0 
   32700    296.37714   -20523.006   -20417.884    99.863015    93.245726          160    63.556392   -6522.0519            0 
   32800    291.88791   -20520.323   -20416.793    99.870309    93.263231          160    28.164298   -6414.2904            0 
   32900    307.12031   -20524.688   -20415.756    99.857018    93.280735          160   -21.683809   -6450.4837            0 
   33000    298.09268   -20520.251   -20414.521    99.847724    93.298239          160    7.5821537   -6554.3583            0 
   33100    299.11857   -20519.482   -20413.388    99.935916    93.315744          160   -137.24636   -6502.7617            0 
   33200    305.23292   -20520.522   -20412.259    99.809016    93.333248          160     103.0543   -6566.9722            0 
   33300    308.75515   -20520.519   -20411.006    99.816542    93.350752          160    60.102083   -6545.9462            0 
   33400    304.36414   -20517.619   -20409.664    99.875653    93.368257          160   -77.147262   -6592.4806            0 
   33500    303.43407   -20516.165    -20408.54    99.864569    93.385761          160    27.348203   -6631.4665            0 
   33600    298.58691   -20513.188   -20407.282    99.849321    93.403266          160   -41.992751   -6561.5948            0 
   33700    298.96632   -20512.051    -20406.01    99.866528     93.42077          160   -8.7185568   -6657.4637            0 
   33800    304.72706   -20512.926   -20404.842    99.839481    93.438274          160   -49.034797   -6688.4273            0 
   33900    303.18814   -20511.137   -20403.599    99.808839    93.455779          160    17.554123    -6623.906            0 
   34000    291.93359   -20506.049   -20402.503    99.839626    93.473283          160    65.745649   -6715.7548            0 
   34100    304.18288   -20509.295   -20401.405    99.890448    93.490787          160   -55.930843   -6711.0952            0 
   34200     297.4705   -20505.679   -20400.169    99.794001    93.508292          160   -46.701423    -6688.088            0 
   34300    291.03871   -20502.223   -20398.994      99.8175    93.525796          160   -14.382724   -6773.9727            0 
   34400    295.03748   -20502.427    -20397.78    99.888999      93.5433          160   -20.096152   -6723.1723            0 
   34500    306.63505   -20505.198   -20396.437    99.799985    93.560805          160    71.304158   -6833.1746            0 
   34600    303.15969   -20502.883   -20395.356    99.842791    93.578309          160   -31.521224   -6789.7435            0 
   34700    300.30139   -20500.463   -20393.949    99.747991    93.595813          160   -40.090416   -6782.9826            0 
   34800    295.65097   -20497.675   -20392.811    99.849352    93.613318          160   -8.2943133   -6912.5186            0 
   34900    300.57465   -20498.002   -20391.391    99.846477    93.630822          160   -9.5542615   -6773.7151            0 
   35000    296.89184    -20495.55   -20390.245    99.794742    93.648327          160    72.537555   -6858.2273            0 
   35100    299.34295   -20495.045   -20388.871    99.806838    93.665831          160   -14.390708   -6859.8123            0 
   35200    300.46736   -20494.294   -20387.722    99.746827    93.683335          160   -31.289832   -6909.0741            0 
   35300     305.2125   -20494.708   -20386.452    99.831735     93.70084          160   -16.000063   -6932.2278            0 
   35400    300.14096   -20491.796   -20385.339    99.823982    93.718344          160   -74.311669   -6865.0608            0 
   35500    302.70069   -20491.635    -20384.27    99.818739    93.735848          160   -10.628936   -6961.1187            0 
   35600    293.13287    -20484.17   -20380.199    99.715917    93.753353          160    7.3461979   -6871.5261            0 
   35700    300.88769   -20483.798   -20377.076    99.784934    93.770857          160    39.945653   -6974.7672            0 
   35800    304.80677   -20484.589   -20376.478    99.831624    93.788361          160   -36.164875   -6918.5414            0 
   35900    298.50202   -20481.815    -20375.94    99.815111    93.805866          160    22.478744   -7034.9739            0 
   36000    302.53981   -20482.361   -20375.053    99.852567     93.82337          160   -87.040667   -6948.0521            0 
   36100    298.37057   -20479.811   -20373.982      99.7336    93.840875          160   -2.8689025   -7002.9092            0 
   36200    299.48581   -20478.756   -20372.531    99.776822    93.858379          160    47.866056   -7048.8107            0 
   36300    295.84916    -20476.13   -20371.195     99.81778    93.875883          160    -49.90905   -6985.5038            0 
   36400    299.33143    -20476.25    -20370.08    99.831337    93.893388          160   -13.453897   -7060.3147            0 
   36500    302.97525   -20476.303   -20368.841    99.710334    93.910892          160    44.702456   -7084.4184            0 
   36600     300.4427   -20474.287   -20367.723    99.833513    93.928396          160   -110.75126   -7051.6545            0 
   36700    296.48216   -20471.719    -20366.56    99.798476    93.945901          160   -6.5404967   -7109.4002            0 
   36800     308.6082   -20474.558   -20365.098    99.771678    93.963405          160    52.528026   -7102.8469            0 
   36900    295.86979   -20468.837   -20363.895    99.744174    93.980909          160   -8.7795824   -7126.8012            0 
   37000    299.60434   -20467.471   -20361.204      99.7663    93.998414          160   -7.0022005   -7142.7986            0 
   37100    302.53818   -20462.588   -20355.281    99.901675    94.015918          160   -51.474405   -7122.4983            0 
   37200    302.80818   -20462.633    -20355.23    99.759791    94.033423          160    33.277598   -7167.6638            0 
   37300    299.59077   -20461.291   -20355.029    99.840536    94.050927          160    -13.64349   -7250.7418            0 
   37400    300.71934   -20460.887   -20354.225    99.727183    94.068431          160   -79.733094   -7093.1431            0 
   37500    302.17207   -20460.572   -20353.395    99.826184    94.085936          160   -27.734091     -7185.97            0 
   37600    298.39989   -20458.036   -20352.197    99.816955     94.10344          160    46.459788   -7213.9575            0 
   37700    310.35279   -20460.964   -20350.885    99.738984    94.120944          160      62.4267   -7199.7405            0 
   37800    297.75902   -20455.228   -20349.616    99.789285    94.138449          160   -21.770647    -7273.993            0 
   37900     292.4943   -20452.431   -20348.686    99.720305    94.155953          160   -9.9527242   -7300.1479            0 
   38000    296.67393   -20452.545   -20347.318    99.791295    94.173457          160    75.645719   -7251.9007            0 
   38100    306.47767   -20454.706   -20346.001    99.787564    94.190962          160    26.163211   -7225.1231            0 
   38200    299.98965   -20450.857   -20344.454    99.742684    94.208466          160    44.683169   -7283.4908            0 
   38300    302.81414   -20450.258   -20342.853    99.757002     94.22597          160   -140.83055   -7267.4114            0 
   38400    296.45394   -20446.694   -20341.544    99.761018    94.243475          160    37.390742   -7422.9364            0 
   38500    301.97752   -20447.445   -20340.337    99.803162    94.260979          160   -17.806874   -7295.0956            0 
   38600    297.05881    -20444.67   -20339.306    99.745337    94.278484          160    33.592737   -7367.9914            0 
   38700    306.34196   -20446.472   -20337.816    99.745671    94.295988          160   -57.797573   -7352.9085            0 
   38800     302.0058   -20443.567   -20336.449    99.685994    94.313492          160    57.106796   -7384.0298            0 
   38900    300.01308   -20441.549   -20335.137    99.749999    94.330997          160    34.785114   -7423.0576            0 
   39000    294.00123   -20438.238   -20333.958    99.755049    94.348501          160   -5.0169679   -7373.9741            0 
   39100    292.33179   -20436.305   -20332.617    99.782916    94.366005          160   -71.385078    -7406.694            0 
   39200    286.66378   -20432.917    -20331.24    99.720373     94.38351          160    -2.625602   -7426.4658            0 
   39300     302.4825   -20437.039   -20329.752     99.66491    94.401014          160    132.27891   -7493.6292            0 
   39400    300.13341   -20434.936   -20328.482     99.74781    94.418518          160    2.3629279   -7461.1218            0 
   39500    305.85372   -20435.492   -20327.009    99.734484    94.436023          160    5.4221706   -7485.7341            0 
   39600    296.98416    -20430.95   -20325.612    99.713521    94.453527          160     48.10133   -7545.0197            0 
   39700    310.38351   -20434.225   -20324.135    99.717423    94.471032          160   -42.070469   -7549.8983            0 
   39800    301.56748   -20429.828   -20322.866    99.714256    94.488536          160    55.846972   -7483.4259            0 
   39900    298.45132   -20427.541   -20321.684    99.663549     94.50604          160    40.895686   -7501.2356            0 
   40000    296.48092   -20425.507   -20320.348    99.781778    94.523545          160   -47.254929   -7618.9082            0 
   40100    298.12967   -20424.714    -20318.97    99.647995    94.541049          160    -30.60099   -7585.7826            0 
   40200    298.28456   -20423.297   -20317.499    99.728285    94.558553          160    1.1085156   -7470.2606            0 
   40300    303.31476   -20423.685   -20316.102    99.721749    94.576058          160    12.323681   -7606.4317            0 
   40400    300.90808    -20421.54   -20314.811    99.726589    94.593562          160    4.6025935   -7637.3345            0 
   40500    305.45348   -20421.874   -20313.533    99.665992    94.611066          160     5.349719   -7610.5922            0 
   40600    295.22525   -20416.919   -20312.205    99.641856    94.628571          160    39.319774   -7668.9658            0 
   40700    304.74013   -20418.753   -20310.665    99.787297    94.646075          160   -48.087644    -7679.279            0 
   40800    300.10904   -20415.443   -20308.997    99.689295    94.663579          160    21.003151    -7726.492            0 
   40900    302.21091   -20414.764   -20307.573    99.682591    94.681084          160    26.326779   -7666.8455            0 
   41000     299.5858   -20412.633   -20306.373    99.618095    94.698588          160   -13.252627   -7657.9358            0 
   41100    297.28469   -20410.587   -20305.143    99.718148    94.716093          160   -14.265075   -7793.4829            0 
   41200    302.84126   -20411.191   -20303.777    99.712029    94.733597          160    7.3614531   -7723.9496            0 
   41300    294.97555   -20406.928   -20302.304    99.671071    94.751101          160    34.708958   -7768.2477            0 
   41400    299.77124   -20407.368   -20301.042    99.733339    94.768606          160   -107.02921   -7771.1484            0 
   41500    304.49222    -20407.68   -20299.679    99.575314     94.78611          160    84.996698   -7806.3255            0 
   41600      308.097   -20400.517   -20291.238    99.658084    94.803614          160    92.703568   -7740.8669            0 
   41700    312.77589   -20399.774   -20288.836      99.7464    94.821119          160   -65.243954   -7757.2443            0 
   41800    301.87472   -20397.531   -20290.459    99.775219    94.838623          160   -47.925415   -7838.1985            0 
   41900    300.69273   -20396.791   -20290.138     99.65317    94.856127          160   -20.722605   -7820.6653            0 
   42000     308.5262     -20398.8   -20289.369    99.648773    94.873632          160    52.784269   -7874.7282            0 
   42100    302.27781   -20395.527   -20288.312    99.719024    94.891136          160   -18.207536   -7877.5121            0 
   42200    296.92829   -20392.339   -20287.021    99.684176    94.908641          160    9.9622898   -7869.5938            0 
   42300    304.04372   -20393.589   -20285.748    99.681951    94.926145          160    39.645705   -7813.1303            0 
   42400    293.56495   -20388.691   -20284.566    99.647973    94.943649          160    42.587719    -7935.425            0 
   42500    298.23121   -20388.909   -20283.129    99.672061    94.961154          160   -10.460918   -7943.5128            0 
   42600    289.09427   -20384.326   -20281.787    99.689401    94.978658          160   -1.6249966    -7907.072            0 
   42700    298.03122   -20385.898    -20280.19    99.719434    94.996162          160    -75.82591    -7915.322            0 
   42800    297.77893   -20384.251   -20278.631    99.607533    95.013667          160    76.899641   -8017.6737            0 
   42900    303.42171   -20384.832   -20277.211    99.688832    95.031171          160   -85.885243   -7948.4312            0 
   43000    295.74091   -20380.761   -20275.865    99.680415    95.048675          160    26.603676   -7933.9088            0 
   43100    297.13434   -20379.806   -20274.416    99.630778     95.06618          160    69.573789   -7974.3682            0 
   43200    297.46452   -20378.458   -20272.951     99.68243    95.083684          160    17.622064   -8073.4949            0 
   43300    295.95309   -20376.352   -20271.381    99.640438    95.101188          160   -25.016063   -8018.6788            0 
   43400     297.6038    -20375.55   -20269.993    99.635538    95.118693          160    11.380136   -8001.3675            0 
   43500    294.78296   -20373.272   -20268.715    99.713529    95.136197          160   -43.178028   -8079.6188            0 
   43600    310.66622   -20371.798   -20261.608    99.655924    95.153702          160     29.66367   -8045.8786            0 
   43700    308.78086   -20364.835   -20255.313    99.553802    95.171206          160    156.14549   -8015.3816            0 
   43800    301.52301   -20362.888   -20255.941    99.738523     95.18871          160   -96.752577   -7982.8277            0 
   43900    306.75945    -20364.84   -20256.035    99.752325    95.206215          160   -30.913193   -8090.7845            0 
   44000    301.28189   -20362.501   -20255.639    99.727598    95.223719          160    29.415813   -8041.9033            0 
   44100    297.78102   -20360.605   -20254.985     99.61148    95.241223          160     54.65502   -8075.5265            0 
   44200    295.01981   -20358.517   -20253.877    99.614723    95.258728          160    36.078261    -8083.693            0 
   44300    300.53805   -20359.211   -20252.613    99.754442    95.276232          160    -106.6275   -8114.2824            0 
   44400    299.58148   -20357.461   -20251.202    99.704434    95.293736          160    54.012116    -8193.761            0 
   44500    299.06595   -20355.675   -20249.599      99.7369    95.311241          160   -115.48691   -8105.7659            0 
   44600    298.78722   -20353.981   -20248.004    99.586817    95.328745          160    43.516116   -8175.0855            0 
   44700    302.21441   -20353.761   -20246.569     99.66057     95.34625          160    -73.99963   -8165.2659            0 
   44800    302.84822   -20346.482   -20239.064    99.714006    95.363754          160    30.215214   -8193.6547            0 
   44900    301.90748   -20343.793   -20236.709    99.690793    95.381258          160   -14.622512   -8158.2935            0 
   45000    304.37739   -20346.361   -20238.401     99.72453    95.398763          160    11.887235   -8188.0161            0 
   45100    300.51507    -20344.26    -20237.67      99.6126    95.416267          160    81.798039   -8182.7733            0 
   45200    303.36433   -20344.343   -20236.743    99.654126    95.433771          160    90.443547    -8217.191            0 
   45300    295.14172   -20340.001   -20235.317    99.674757    95.451276          160    4.9946343   -8281.7064            0 
   45400    301.99291   -20341.005   -20233.891    99.723755     95.46878          160   -119.61003   -8184.1452            0 
   45500    304.78947   -20337.426    -20229.32    99.665513    95.486284          160    25.741454   -8185.2511            0 
   45600    305.11363   -20334.285   -20226.064    99.683376    95.503789          160     8.572963   -8248.3906            0 
   45700    298.55921   -20331.793   -20225.897    99.715653    95.521293          160     61.09589   -8307.4245            0 
   45800    299.06345   -20331.146   -20225.071    99.687755    95.538797          160   -48.388759   -8259.3446            0 
   45900    300.84215   -20330.606   -20223.901    99.676297    95.556302          160    36.201561   -8357.9498            0 
   46000    305.59178   -20330.879   -20222.489    99.634258    95.573806          160    2.2625826   -8343.1024            0 
   46100    297.06933   -20326.617   -20221.249    99.751123    95.591311          160    13.229537   -8269.5089            0 
   46200    294.59287   -20324.254   -20219.765    99.686002    95.608815          160   -8.8973328   -8240.8876            0 
   46300    300.46184   -20324.988   -20218.417    99.695711    95.626319          160   -2.9543604   -8422.8531            0 
   46400    295.52998   -20321.647   -20216.825    99.564904    95.643824          160    55.166295   -8328.5807            0 
   46500    304.34934   -20323.174   -20215.224    99.705155    95.661328          160    -38.55464   -8408.3895            0 
   46600    304.11646   -20321.628   -20213.761    99.774267    95.678832          160   -85.390686   -8308.9786            0 
   46700    299.34687   -20318.465   -20212.289    99.628942    95.696337          160    67.138148   -8401.6237            0 
   46800    314.91433   -20316.061   -20204.364    99.677438    95.713841          160   -18.089159   -8382.7492            0 
   46900    301.26379   -20311.071   -20204.216    99.642681    95.731345          160   -7.0033222   -8375.9736            0 
   47000    301.63729   -20311.056   -20204.068    99.704372     95.74885          160    19.567469   -8498.1664            0 
   47100    303.32587   -20310.741   -20203.154    99.721542    95.766354          160   -26.700314   -8362.3357            0 
   47200    304.18656    -20309.96   -20202.068    99.660962    95.783859          160    35.044251   -8373.8163            0 
   47300    301.59724   -20307.617   -20200.644    99.636999    95.801363          160    14.674917   -8505.1484            0 
   47400    312.38237   -20303.827   -20193.029    99.692909    95.818867          160    3.6208185   -8538.6028            0 
   47500    305.36507   -20301.107   -20192.797    99.692822    95.836372          160    35.382816   -8399.4825            0 
   47600    299.22662   -20298.639   -20192.506    99.711275    95.853876          160    111.24083   -8502.8274            0 
   47700    299.85261   -20297.949   -20191.594    99.745794     95.87138          160   -138.22161   -8431.1848            0 
   47800    300.38288   -20297.051   -20190.508    99.659612    95.888885          160    42.824595   -8561.0623            0 
   47900    296.31542   -20294.194   -20189.094    99.656128    95.906389          160   -16.433962    -8468.923            0 
   48000    297.10767   -20293.031    -20187.65    99.705228    95.923893          160     5.475358   -8517.5569            0 
   48100     297.2987   -20291.789   -20186.341    99.747937    95.941398          160   -101.85609   -8554.8405            0 
   48200    300.25317   -20291.466   -20184.969    99.617845    95.958902          160    53.588255    -8538.274            0 
   48300     300.6908   -20289.956   -20183.304    99.740067    95.976406          160   -46.476621    -8532.271            0 
   48400      302.268   -20288.804   -20181.592    99.623613    95.993911          160    131.23327   -8659.5282            0 
   48500    292.82428    -20283.65   -20179.788    99.669559    96.011415          160    81.645569   -8608.2013            0 
   48600    300.70566   -20284.919   -20178.262     99.67982     96.02892          160   -104.38676   -8606.2232            0 
   48700    299.77487   -20283.272   -20176.944    99.669279    96.046424          160    14.628395   -8632.3884            0 
   48800    295.93689   -20280.163   -20175.197    99.685554    96.063928          160    2.3925265   -8588.7165            0 
   48900    302.05899   -20280.801   -20173.664    99.685049    96.081433          160    57.676355   -8679.7069            0 
   49000    298.73322   -20278.239   -20172.281    99.698208    96.098937          160   -52.024401   -8628.8055            0 
   49100    304.49322   -20278.531   -20170.531    99.542614    96.116441          160    19.071956   -8684.4094            0 
   49200    295.99493   -20274.153   -20169.167    99.702818    96.133946          160   -55.427345   -8722.6566            0 
   49300    301.00489   -20274.272   -20167.509    99.673278     96.15145          160    57.779924   -8618.3887            0 
   49400    299.80486   -20272.282   -20165.944    99.706417    96.168954          160   -30.576864   -8663.5456            0 
   49500    296.49171   -20269.596   -20164.433    99.630589    96.186459          160    65.892722   -8873.6654            0 
   49600    302.70248   -20270.085   -20162.719    99.578141    96.203963          160    48.236646   -8721.0713            0 
   49700    306.47731   -20266.069   -20157.365    99.607834    96.221468          160    109.24361   -8689.9737            0 
   49800    300.19394     -20261.1   -20154.624     99.75611    96.238972          160   -80.631084   -8677.3651            0 
   49900    306.93096   -20262.995    -20154.13    99.757843    96.256476          160   -32.762548   -8805.7067            0 
   50000    303.95456   -20260.976   -20153.167    99.525017    96.273981          160    145.89035   -8781.2486            0 
   50100    292.06036    -20255.77   -20152.179    99.629066    96.291485          160   -16.119066   -8704.1765            0 
   50200    302.78806    -20258.16   -20150.764    99.715966    96.308989          160    -62.93428   -8825.0301            0 
   50300    306.04609    -20258.04   -20149.489    99.697372    96.326494          160   -31.746587   -8806.2446            0 
   50400    302.34383    -20255.38   -20148.142    99.715546    96.343998          160   -44.963741   -8840.1744            0 
   50500    312.17559    -20253.86   -20143.135    99.614592    96.361502          160   -8.9757244   -8706.2007            0 
   50600     299.2699   -20246.178    -20140.03    99.613788    96.379007          160    79.398719   -8679.6778            0 
   50700    302.39862    -20242.17   -20134.912    99.778668    96.396511          160   -51.494929   -8571.3709            0 
   50800    315.50115   -20245.203   -20133.297    99.794459    96.414015          160   -74.226069   -8508.9488            0 
   50900     338.5989   -20247.894   -20127.796    99.749074     96.43152          160    43.410197   -8143.5143            0 
   51000    366.50064   -20255.443   -20125.449    99.765032    96.449024          160    60.708028   -7893.3196            0 
   51100    387.53286   -20271.376   -20133.922     100.1632    96.466529          160   -154.85065   -7481.7566            0 
   51200    391.30728     -20283.9   -20145.108    100.09957    96.484033          160   -14.900637   -7157.4986            0 
   51300    390.59132   -20292.649    -20154.11    99.970678    96.501537          160    169.20942   -6863.6361            0 
   51400    395.19425   -20296.112   -20155.941    100.08884    96.519042          160   -7.4575044   -6324.7907            0 
   51500    428.09793   -20307.045   -20155.203    100.40261    96.536546          160    -62.49721   -5439.6322            0 
   51600    442.02424   -20317.754   -20160.972    100.62937     96.55405          160    17.690645   -4412.0327            0 
   51700    511.04471   -20342.229   -20160.966    100.80731    96.571555          160   -83.720054   -3364.6766            0 
   51800    568.35022   -20379.538    -20177.95    100.76665    96.589059          160    42.654975   -2237.7237            0 
   51900    602.25399   -20424.711   -20211.098    101.10858    96.606563          160    -103.3241    -1296.186            0 
   52000    597.41978   -20452.773   -20240.875     101.2813    96.624068          160   -39.686942    -423.4669            0 
   52100    542.02544    -20466.91   -20274.659    101.28975    96.641572          160    22.593915    198.18088            0 
   52200    488.01185   -20470.873   -20297.781    101.45405    96.659077          160     81.24625    1143.5288            0 
   52300    446.63261       -20477   -20318.584    101.79109    96.676581          160    -81.63129    1842.4085            0 
   52400    398.19309   -20475.133   -20333.898    101.81425    96.694085          160    117.61202    2485.3065            0 
   52500    350.56158   -20467.912   -20343.572    101.66693     96.71159          160    81.275319    2591.0689            0 
   52600    325.15859   -20467.247   -20351.917    101.71073    96.729094          160   -56.775488    2359.6778            0 
   52700    324.69014   -20471.829   -20356.665    101.82311    96.746598          160   -8.2029077    1842.8619            0 
   52800    341.65185   -20467.308   -20346.128    101.69464    96.764103          160    44.626869    1350.9414            0 
   52900    354.48982   -20475.194    -20349.46    101.45968    96.781607          160    -99.21197    782.36435            0 
   53000    360.60361   -20481.312   -20353.409    101.25689    96.799111          160    25.152987    105.92104            0 
   53100    366.75296   -20497.552   -20367.469     101.3321    96.816616          160    37.185537   -678.92997            0 
   53200     347.8286   -20498.083   -20374.712     101.2755     96.83412          160     28.20632   -1152.9439            0 
   53300    340.89015   -20502.325   -20381.415    101.02228    96.851624          160   -16.553652   -1496.3809            0 
   53400    312.57506    -20495.84   -20384.973    100.89381    96.869129          160    7.3048667   -1754.3438            0 
   53500    327.28366   -20493.037   -20376.952    101.04909    96.886633          160    63.558695   -1757.1276            0 
   53600    316.23791   -20484.902   -20372.736    101.12293    96.904138          160    -10.81236    -1708.017            0 
   53700    325.69353   -20495.185   -20379.665    101.04113    96.921642          160   -12.991765   -1572.7391            0 
   53800    329.31952   -20494.901   -20378.095    100.85734    96.939146          160     74.83001   -1243.9719            0 
   53900    317.40341   -20498.758   -20386.178    101.13516    96.956651          160   -94.898246   -989.27153            0 
   54000    323.77359   -20502.052   -20387.213    101.43945    96.974155          160   -75.577025   -613.42182            0 
   54100    332.08002   -20511.001   -20393.216    101.33665    96.991659          160   -32.227687   -154.69046            0 
   54200    339.68086   -20519.116   -20398.635    101.18577    97.009164          160    48.371178    236.05259            0 
   54300    325.95313   -20517.822    -20402.21    101.43883    97.026668          160   -38.038639    310.45755            0 
   54400    319.34345   -20512.578    -20399.31     101.4921    97.044172          160    109.60202    411.19983            0 
[...]
   65400    300.52639   -20528.957   -20422.364    101.37779    98.969652          160   -15.727233   -340.42657            0 
   65500    305.27253   -20532.049   -20423.772    101.34329    98.987156          160     1.373914    -279.8974            0 
   65600    294.28682   -20529.142   -20424.762     101.3636    99.004661          160   -4.7526928   -321.90389            0 
   65700     286.1502   -20524.346   -20422.852    101.30587    99.022165          160   -9.6949771   -238.43019            0 
   65800    293.38324    -20524.49   -20420.429    101.32475    99.039669          160    -19.81654   -207.77149            0 
   65900    303.80589   -20527.425   -20419.668    101.48029    99.057174          160   -154.75138    -265.0451            0 
   66000    302.69773   -20528.163   -20420.799     101.3464    99.074678          160     38.20228   -241.72204            0 
   66100    308.06237   -20530.898   -20421.631    101.26929    99.092183          160    127.34889   -161.82229            0 
   66200    298.74392   -20528.158   -20422.196    101.31927    99.109687          160    1.2567493   -73.751725            0 
   66300    308.43501   -20531.902   -20422.504    101.44509    99.127191          160   -98.425484   -115.10128            0 
   66400    285.21138   -20524.318   -20423.157    101.42467    99.144696          160    27.281849   -172.54474            0 
   66500    300.99962   -20528.793   -20422.031    101.38087      99.1622          160    23.665653    -84.14883            0 
   66600    298.88346   -20527.615   -20421.604    101.35147    99.179704          160    9.4176473   -78.394486            0 
   66700    300.79485   -20528.769    -20422.08    101.43344    99.197209          160    15.962234   -272.32313            0 
   66800    298.73208   -20527.343   -20421.386    101.37319    99.214713          160    54.729532   -230.73154            0 
   66900    299.80954   -20526.275   -20419.935     101.3445    99.232217          160   -30.122326   -288.62592            0 
   67000    299.70614   -20525.674   -20419.371    101.35279    99.249722          160   -13.710772   -276.00256            0 
   67100    300.12933   -20525.648   -20419.195     101.3714    99.267226          160    23.965931   -317.87534            0 
   67200    303.93694   -20527.409   -20419.606     101.3587    99.284731          160   -58.702085   -371.68643            0 
   67300    304.79945   -20529.156   -20421.047    101.27217    99.302235          160    2.8794249   -425.90882            0 
   67400    301.00525   -20529.461   -20422.698    101.29938    99.319739          160   -60.379203   -421.14965            0 
   67500    287.52399   -20524.859   -20422.877    101.28309    99.337244          160    2.7104289   -346.37166            0 
   67600    288.09636   -20523.089   -20420.904    101.36509    99.354748          160    33.830632   -452.33349            0 
   67700    299.04349   -20524.951   -20418.883    101.31026    99.372252          160    45.986645   -417.21646            0 
   67800    308.84356   -20527.602   -20418.059    101.28494    99.389757          160   -8.8825073   -273.26709            0 
   67900    298.35029   -20524.315   -20418.493    101.35618    99.407261          160   -66.394071    -228.7436            0 
   68000    304.55988   -20527.088   -20419.064    101.37057    99.424765          160    12.823875   -351.44872            0 
   68100    311.98451   -20530.953   -20420.296    101.29986     99.44227          160    30.097338   -147.75966            0 
   68200    306.10967   -20530.328   -20421.754    101.43016    99.459774          160   -37.987219   -46.456386            0 
   68300    288.60344   -20524.768   -20422.403    101.39839    99.477278          160   -48.385434   -174.78837            0 
   68400    299.33165   -20527.549   -20421.379    101.37753    99.494783          160    32.309743   -282.78358            0 
   68500    291.73989   -20524.088   -20420.611    101.24912    99.512287          160    165.56779   -221.93176            0 
   68600    292.79559   -20524.271   -20420.419     101.4348    99.529792          160   -29.360078   -252.82644            0 
   68700    302.98927   -20527.107    -20419.64    101.36917    99.547296          160   -7.6249673   -353.28637            0 
   68800    302.64044   -20526.502   -20419.158    101.30577      99.5648          160    24.810204   -266.62197            0 
   68900    300.60257   -20526.136   -20419.515    101.29513    99.582305          160    66.016096    -483.0271            0 
   69000    305.76716   -20527.962   -20419.509    101.38831    99.599809          160   -65.611511   -602.80446            0 
   69100    299.76431   -20525.772   -20419.449     101.2902    99.617313          160   -7.5696446   -597.86496            0 
   69200    306.09186   -20527.933   -20419.365    101.23692    99.634818          160   -12.504132   -578.95337            0 
   69300    297.94554   -20525.234   -20419.556    101.33993    99.652322          160   -30.699437    -613.8639            0 
   69400    297.78435   -20525.303   -20419.682    101.34586    99.669826          160    9.3223929   -490.66459            0 
   69500    298.53123   -20525.167   -20419.281    101.29619    99.687331          160    50.520953   -468.26637            0 
   69600    307.06951   -20527.866   -20418.951    101.21354    99.704835          160    86.918763   -534.79345            0 
   69700    297.53111   -20524.564   -20419.033    101.28869     99.72234          160   -41.546096   -470.38066            0 
   69800    294.19721    -20523.72   -20419.371    101.39431    99.739844          160   -19.402949   -342.17027            0 
   69900    301.18294   -20525.828   -20419.002    101.42682    99.757348          160   -101.64412    -254.6617            0 
   70000    300.20505   -20525.668   -20419.188    101.32502    99.774853          160   -56.165182   -179.50585            0 
   70100    306.42164    -20528.91   -20420.225    101.28905    99.792357          160    76.320921   -196.07466            0 
   70200    298.44624   -20526.226    -20420.37    101.41195    99.809861          160    73.661243   -170.34409            0 
   70300    290.73836   -20522.594   -20419.472    101.43889    99.827366          160    28.822201   -217.00096            0 
   70400    304.76596   -20526.671   -20418.574    101.31905     99.84487          160    103.29412   -340.22578            0 
   70500    301.87128   -20525.153   -20418.082    101.31558    99.862374          160      22.9152   -275.23828            0 
   70600    301.63936   -20524.586   -20417.597    101.42789    99.879879          160   -56.417793   -426.46592            0 
   70700    300.27327   -20524.072   -20417.568    101.39582    99.897383          160   -34.425245   -425.52702            0 
   70800    297.99221   -20523.733   -20418.038    101.26712    99.914887          160    31.563703    -485.8137            0 
   70900    304.14244   -20525.569   -20417.693     101.1795    99.932392          160     73.04234   -484.89648            0 
   71000    301.46884   -20524.918    -20417.99    101.33386    99.949896          160    34.067929   -668.05341            0 
   71100    294.80826   -20522.301   -20417.736     101.2969    99.967401          160    18.339963   -800.53367            0 
   71200    296.31284   -20522.058   -20416.959    101.23375    99.984905          160    50.418295   -651.22226            0 
   71300    300.75419   -20524.404   -20417.729    101.21645    100.00241          160    24.820455   -751.18438            0 
   71400    297.06473   -20523.616    -20418.25    101.35677    100.01991          160    -1.546496   -677.56065            0 
   71500    305.18573   -20523.687   -20415.441    101.27364    100.03742          160    54.347711   -549.50149            0 
   71600    305.12802   -20524.596   -20416.371    101.33738    100.05492          160   -113.27662    -507.5348            0 
   71700    305.42927   -20525.155   -20416.823    101.23909    100.07243          160    25.154061   -501.96432            0 
   71800     311.3509   -20528.336   -20417.903    101.30197    100.08993          160    101.17714   -403.08022            0 
   71900    302.20235   -20527.312   -20420.123    101.39042    100.10744          160   -33.620299   -401.29688            0 
   72000    297.86675   -20526.955   -20421.305    101.39356    100.12494          160   -84.655899   -385.20371            0 
   72100    297.96519   -20527.054   -20421.369    101.33545    100.14244          160   -25.988613   -289.91289            0 
   72200    297.41667   -20526.029   -20420.538    101.29469    100.15995          160    22.925058   -210.45553            0 
   72300    300.62282   -20526.155   -20419.527    101.48766    100.17745          160    -149.0128   -288.85242            0 
   72400    308.80349   -20528.416   -20418.886    101.35001    100.19496          160    33.571717   -460.59481            0 
   72500    305.15526   -20527.554   -20419.318    101.21988    100.21246          160    166.65967   -495.61581            0 
   72600    309.95382   -20530.116   -20420.178    101.29925    100.22997          160   -38.708281   -497.88688            0 
   72700    307.86952   -20530.431   -20421.233    101.36596    100.24747          160   -41.209499   -682.36175            0 
   72800    301.38176    -20528.89   -20421.993    101.32076    100.26497          160   -8.9959855   -669.57712            0 
   72900    298.72065    -20527.57   -20421.617    101.26551    100.28248          160   -16.134081   -623.92825            0 
   73000    302.44372   -20527.739   -20420.465    101.24357    100.29998          160   -19.197621   -795.90791            0 
   73100    300.98132   -20526.445    -20419.69    101.27998    100.31749          160   -23.012813    -917.5908            0 
   73200    298.54365    -20525.27    -20419.38    101.30838    100.33499          160   -50.278706    -859.9146            0 
   73300    298.36246   -20524.415   -20418.589    101.19134     100.3525          160    29.521525    -773.1453            0 
   73400    304.01065   -20526.132   -20418.303    101.23223       100.37          160    146.13733   -690.67263            0 
   73500    306.95926    -20527.64   -20418.765    101.26244    100.38751          160    1.0750437   -557.19507            0 
   73600    310.80279   -20529.519    -20419.28    101.32404    100.40501          160   -67.796282   -511.72439            0 
   73700    308.98791   -20529.394   -20419.799    101.24537    100.42251          160     95.59464   -637.94642            0 
   73800    300.62373   -20526.886   -20420.258    101.37306    100.44002          160   -35.454405   -587.68355            0 
   73900    303.39519   -20528.235   -20420.624    101.37185    100.45752          160   -58.818111   -382.31917            0 
   74000    297.36317   -20526.605   -20421.133    101.35173    100.47503          160     54.17288   -293.61688            0 
   74100    289.80961    -20523.63   -20420.837    101.30508    100.49253          160     140.8204    -368.0716            0 
   74200    301.98004   -20526.795   -20419.685    101.33107    100.51004          160    13.954193   -347.29377            0 
   74300    297.12666   -20524.117   -20418.729    101.37734    100.52754          160   -48.774206   -368.71066            0 
   74400    298.99733   -20523.253   -20417.202    101.31694    100.54504          160    30.253268   -410.23654            0 
   74500    301.31038   -20523.787   -20416.915    101.32342    100.56255          160     -19.2462   -646.42786            0 
   74600    304.73922   -20526.172   -20418.084    101.34223    100.58005          160   -34.295714    -557.9643            0 
   74700    309.57367   -20528.982    -20419.18     101.3092    100.59756          160   -4.8410354   -673.52805            0 
   74800    303.38852   -20527.657   -20420.048    101.24774    100.61506          160    27.687188   -832.27898            0 
   74900    292.31875   -20523.622   -20419.939    101.14993    100.63257          160   -34.734265   -890.05465            0 
   75000    292.05757   -20522.734   -20419.144     101.2477    100.65007          160    50.045735   -868.04086            0 
   75100    293.92408   -20522.223   -20417.971    101.23496    100.66757          160    96.735794   -936.30669            0 
   75200    290.04654   -20519.228   -20416.352    101.25312    100.68508          160    11.713863   -929.80107            0 
   75300     307.3383   -20524.232   -20415.222    101.11632    100.70258          160    121.56484   -901.86477            0 
   75400    307.55567   -20524.684   -20415.597    101.30473    100.72009          160   -143.71866   -787.18245            0 
   75500    297.94948   -20522.403   -20416.724    101.34677    100.73759          160   -147.18553   -824.02781            0 
   75600    303.82235   -20524.488   -20416.725    101.22989     100.7551          160    105.06316   -657.05158            0 
   75700    313.49013    -20528.35   -20417.158    101.23625     100.7726          160    59.714698   -519.82567            0 
   75800    296.70875   -20523.184   -20417.945    101.33374    100.79011          160    -47.95643   -588.47235            0 
   75900    296.93934   -20524.088   -20418.766     101.3231    100.80761          160    67.534142   -497.33643            0 
   76000     293.9569   -20522.883   -20418.619    101.37347    100.82511          160    -109.8343   -409.92622            0 
   76100    299.85401   -20523.918   -20417.563     101.3225    100.84262          160   -138.55113   -409.92071            0 
   76200    309.91935   -20526.359   -20416.434    101.31734    100.86012          160  -0.91303105   -523.04735            0 
   76300    305.00517   -20523.594   -20415.412    101.33811    100.87763          160    40.168507   -484.59087            0 
   76400    304.99657   -20523.184   -20415.005    101.35146    100.89513          160   -30.848874   -509.12333            0 
   76500    301.30042   -20522.211   -20415.343    101.26665    100.91264          160    10.464248   -665.52745            0 
   76600    304.22301   -20524.368   -20416.463      101.172    100.93014          160    106.07197   -706.32692            0 
   76700     303.4499   -20525.579   -20417.948    101.37299    100.94764          160    -46.47366    -778.9251            0 
   76800     295.2597   -20522.986    -20418.26    101.30952    100.96515          160     35.82779   -921.43255            0 
   76900    291.72866   -20520.261   -20416.788    101.15601    100.98265          160    64.394972   -894.87479            0 
   77000    297.34993   -20520.373   -20414.906    101.14479    101.00016          160   -43.052011   -980.96427            0 
   77100     297.8963    -20519.01    -20413.35    101.31246    101.01766          160   -109.77615   -1000.3328            0 
   77200    302.77719   -20519.832    -20412.44    101.29907    101.03517          160   -16.494935   -887.34677            0 
   77300     298.3663   -20518.606   -20412.778    101.19289    101.05267          160    85.143208   -884.36944            0 
   77400    295.13049   -20518.244   -20413.564    101.17197    101.07018          160      1.89116   -838.73281            0 
   77500    299.48563   -20520.451   -20414.226    101.27815    101.08768          160   -84.768255   -849.27862            0 
   77600    301.46243   -20522.109   -20415.183    101.35997    101.10518          160    38.795087   -727.05468            0 
   77700    302.10225   -20522.811   -20415.659      101.263    101.12269          160    36.542326   -623.13833            0 
   77800    301.69152   -20523.238   -20416.231    101.21022    101.14019          160     19.63114   -623.60878            0 
   77900    301.91385    -20523.17   -20416.084    101.30589     101.1577          160    26.504864   -568.38401            0 
   78000    297.28657   -20520.977   -20415.533    101.36043     101.1752          160    90.655979   -509.45779            0 
   78100    290.92435   -20517.897   -20414.709    101.30036    101.19271          160   -10.864953    -586.2573            0 
   78200     293.9653   -20517.447    -20413.18     101.2626    101.21021          160   -37.865047   -620.31682            0 
   78300    303.64056   -20519.317   -20411.618    101.24309    101.22771          160    29.961639    -553.5833            0 
   78400    308.36199   -20520.687   -20411.314    101.41176    101.24522          160   -71.600486   -561.37799            0 
   78500    302.99907     -20519.9   -20412.429    101.36311    101.26272          160   -56.218475   -850.93836            0 
   78600    303.74181   -20521.842   -20414.108    101.16516    101.28023          160    24.217452   -865.41143            0 
   78700    303.88405   -20522.747   -20414.963    101.17985    101.29773          160   -8.0073849   -804.30465            0 
   78800     300.5714   -20521.891   -20415.282    101.26532    101.31524          160   -44.210893   -978.68184            0 
   78900    292.30635   -20517.906   -20414.228    101.29525    101.33274          160   -27.231801   -1092.0218            0 
   79000    293.25225   -20516.243    -20412.23    101.08124    101.35025          160    99.221541   -1035.8206            0 
   79100    308.74255   -20519.869   -20410.361    101.18004    101.36775          160   -26.951308   -1004.2296            0 
   79200    299.45101   -20516.032   -20409.819    101.27493    101.38525          160   -87.316444   -1132.7514            0 
   79300    302.61093    -20516.98   -20409.647    101.29532    101.40276          160   -64.085909   -858.39757            0 
   79400    307.79297    -20517.38   -20408.209    101.20835    101.42026          160    3.2941023   -793.37741            0 
   79500    303.63106   -20519.093   -20411.399    101.31753    101.43777          160   -75.087306   -720.91299            0 
   79600    302.63436   -20521.243   -20413.902    101.36539    101.45527          160   -34.125224   -531.72636            0 
   79700     301.4605   -20522.428   -20415.503    101.27091    101.47278          160    92.045284   -214.39683            0 
   79800    295.25834   -20520.922   -20416.197    101.42212    101.49028          160   -23.279885   -267.41562            0 
   79900    305.01853   -20524.976   -20416.789    101.33178    101.50778          160   -10.432051   -83.602903            0 
   80000    297.78771   -20522.863   -20417.241    101.45113    101.52529          160   -16.516233     32.45831            0 
Loop time of 94.204 on 28 procs for 80000 steps with 2745 atoms

Performance: 36.686 ns/day, 0.654 hours/ns, 849.221 timesteps/s
98.6% CPU use with 28 MPI tasks x no OpenMP threads

MPI task timing breakdown:
Section |  min time  |  avg time  |  max time  |%varavg| %total
---------------------------------------------------------------
Pair    | 31.361     | 61.93      | 87.84      | 189.6 | 65.74
Neigh   | 0.18492    | 0.29383    | 0.40529    |  16.3 |  0.31
Comm    | 1.5878     | 22.64      | 58.147     | 356.7 | 24.03
Output  | 0.060882   | 0.063371   | 0.12247    |   4.5 |  0.07
Modify  | 3.503      | 8.7962     | 17.603     | 178.3 |  9.34
Other   |            | 0.4807     |            |       |  0.51

Nlocal:        98.0357 ave         145 max          58 min
Histogram: 1 5 7 3 1 2 2 2 1 4
Nghost:        419.643 ave         582 max         255 min
Histogram: 2 4 5 3 0 0 4 3 2 5
Neighs:        0.00000 ave           0 max           0 min
Histogram: 28 0 0 0 0 0 0 0 0 0
FullNghs:      14164.2 ave       23226 max        7923 min
Histogram: 5 3 6 3 1 1 5 0 0 4

Total # of neighbors = 396598
Ave neighs/atom = 144.48015
Neighbor list builds = 322
Dangerous builds = 0
Total wall time: 0:02:28
