 Lammps data file for nanotube
 
        2745 atoms
           1 atom types
 
  -33.66221       67.32442     xlo xhi
  -29.16934       58.33868     ylo yhi
  -80.00000       80.00000     zlo zhi
 
  Atoms
 
    1    1 -33.738 -29.246   0.000
    2    1 -32.342 -29.246   0.000
    3    1 -31.644 -28.037   0.000
    4    1 -30.248 -28.037   0.000
    5    1 -33.738 -26.828   0.000
    6    1 -32.342 -26.828   0.000
    7    1 -31.644 -25.619   0.000
    8    1 -30.248 -25.619   0.000
    9    1 -33.738 -24.410   0.000
   10    1 -32.342 -24.410   0.000
   11    1 -31.644 -23.201   0.000
   12    1 -30.248 -23.201   0.000
   13    1 -33.738 -21.992   0.000
   14    1 -32.342 -21.992   0.000
   15    1 -31.644 -20.783   0.000
   16    1 -30.248 -20.783   0.000
   17    1 -33.738 -19.574   0.000
   18    1 -32.342 -19.574   0.000
   19    1 -31.644 -18.365   0.000
   20    1 -30.248 -18.365   0.000
   21    1 -33.738 -17.156   0.000
   22    1 -32.342 -17.156   0.000
   23    1 -31.644 -15.947   0.000
   24    1 -30.248 -15.947   0.000
   25    1 -33.738 -14.738   0.000
   26    1 -32.342 -14.738   0.000
   27    1 -31.644 -13.529   0.000
   28    1 -30.248 -13.529   0.000
   29    1 -33.738 -12.320   0.000
   30    1 -32.342 -12.320   0.000
   31    1 -31.644 -11.111   0.000
   32    1 -30.248 -11.111   0.000
   33    1 -33.738  -9.902   0.000
   34    1 -32.342  -9.902   0.000
   35    1 -31.644  -8.693   0.000
   36    1 -30.248  -8.693   0.000
   37    1 -33.738  -7.484   0.000
   38    1 -32.342  -7.484   0.000
   39    1 -31.644  -6.275   0.000
   40    1 -30.248  -6.275   0.000
   41    1 -33.738  -5.066   0.000
   42    1 -32.342  -5.066   0.000
   43    1 -31.644  -3.857   0.000
   44    1 -30.248  -3.857   0.000
   45    1 -33.738  -2.648   0.000
   46    1 -32.342  -2.648   0.000
   47    1 -31.644  -1.439   0.000
   48    1 -30.248  -1.439   0.000
   49    1 -29.550 -29.246   0.000
   50    1 -28.154 -29.246   0.000
   51    1 -27.456 -28.037   0.000
   52    1 -26.060 -28.037   0.000
   53    1 -29.550 -26.828   0.000
   54    1 -28.154 -26.828   0.000
   55    1 -27.456 -25.619   0.000
   56    1 -26.060 -25.619   0.000
   57    1 -29.550 -24.410   0.000
   58    1 -28.154 -24.410   0.000
   59    1 -27.456 -23.201   0.000
   60    1 -26.060 -23.201   0.000
   61    1 -29.550 -21.992   0.000
   62    1 -28.154 -21.992   0.000
   63    1 -27.456 -20.783   0.000
   64    1 -26.060 -20.783   0.000
   65    1 -29.550 -19.574   0.000
   66    1 -28.154 -19.574   0.000
   67    1 -27.456 -18.365   0.000
   68    1 -26.060 -18.365   0.000
   69    1 -29.550 -17.156   0.000
   70    1 -28.154 -17.156   0.000
   71    1 -27.456 -15.947   0.000
   72    1 -26.060 -15.947   0.000
   73    1 -29.550 -14.738   0.000
   74    1 -28.154 -14.738   0.000
   75    1 -27.456 -13.529   0.000
   76    1 -26.060 -13.529   0.000
   77    1 -29.550 -12.320   0.000
   78    1 -28.154 -12.320   0.000
   79    1 -27.456 -11.111   0.000
   80    1 -26.060 -11.111   0.000
   81    1 -29.550  -9.902   0.000
   82    1 -28.154  -9.902   0.000
   83    1 -27.456  -8.693   0.000
   84    1 -26.060  -8.693   0.000
   85    1 -29.550  -7.484   0.000
   86    1 -28.154  -7.484   0.000
   87    1 -27.456  -6.275   0.000
   88    1 -26.060  -6.275   0.000
   89    1 -29.550  -5.066   0.000
   90    1 -28.154  -5.066   0.000
   91    1 -27.456  -3.857   0.000
   92    1 -26.060  -3.857   0.000
   93    1 -29.550  -2.648   0.000
   94    1 -28.154  -2.648   0.000
   95    1 -27.456  -1.439   0.000
   96    1 -26.060  -1.439   0.000
   97    1 -25.362 -29.246   0.000
   98    1 -23.966 -29.246   0.000
   99    1 -23.268 -28.037   0.000
  100    1 -21.872 -28.037   0.000
  101    1 -25.362 -26.828   0.000
  102    1 -23.966 -26.828   0.000
  103    1 -23.268 -25.619   0.000
  104    1 -21.872 -25.619   0.000
  105    1 -25.362 -24.410   0.000
  106    1 -23.966 -24.410   0.000
  107    1 -23.268 -23.201   0.000
  108    1 -21.872 -23.201   0.000
  109    1 -25.362 -21.992   0.000
  110    1 -23.966 -21.992   0.000
  111    1 -23.268 -20.783   0.000
  112    1 -25.362 -19.574   0.000
  113    1 -23.966 -19.574   0.000
  114    1 -25.362 -17.156   0.000
  115    1 -25.362 -14.738   0.000
  116    1 -25.362 -12.320   0.000
  117    1 -25.362  -9.902   0.000
  118    1 -23.966  -9.902   0.000
  119    1 -23.268  -8.693   0.000
  120    1 -25.362  -7.484   0.000
  121    1 -23.966  -7.484   0.000
  122    1 -23.268  -6.275   0.000
  123    1 -21.872  -6.275   0.000
  124    1 -25.362  -5.066   0.000
  125    1 -23.966  -5.066   0.000
  126    1 -23.268  -3.857   0.000
  127    1 -21.872  -3.857   0.000
  128    1 -25.362  -2.648   0.000
  129    1 -23.966  -2.648   0.000
  130    1 -23.268  -1.439   0.000
  131    1 -21.872  -1.439   0.000
  132    1 -21.174 -29.246   0.000
  133    1 -19.778 -29.246   0.000
  134    1 -19.080 -28.037   0.000
  135    1 -17.684 -28.037   0.000
  136    1 -21.174 -26.828   0.000
  137    1 -19.778 -26.828   0.000
  138    1 -19.080 -25.619   0.000
  139    1 -17.684 -25.619   0.000
  140    1 -21.174 -24.410   0.000
  141    1 -19.778 -24.410   0.000
  142    1 -19.080 -23.201   0.000
  143    1 -17.684 -23.201   0.000
  144    1 -21.174 -21.992   0.000
  145    1 -21.174  -7.484   0.000
  146    1 -19.080  -6.275   0.000
  147    1 -17.684  -6.275   0.000
  148    1 -21.174  -5.066   0.000
  149    1 -19.778  -5.066   0.000
  150    1 -19.080  -3.857   0.000
  151    1 -17.684  -3.857   0.000
  152    1 -21.174  -2.648   0.000
  153    1 -19.778  -2.648   0.000
  154    1 -19.080  -1.439   0.000
  155    1 -17.684  -1.439   0.000
  156    1 -16.986 -29.246   0.000
  157    1 -15.590 -29.246   0.000
  158    1 -14.892 -28.037   0.000
  159    1 -13.496 -28.037   0.000
  160    1 -16.986 -26.828   0.000
  161    1 -15.590 -26.828   0.000
  162    1 -14.892 -25.619   0.000
  163    1 -13.496 -25.619   0.000
  164    1 -16.986 -24.410   0.000
  165    1 -15.590 -24.410   0.000
  166    1 -14.892 -23.201   0.000
  167    1 -13.496 -23.201   0.000
  168    1 -14.892  -6.275   0.000
  169    1 -13.496  -6.275   0.000
  170    1 -16.986  -5.066   0.000
  171    1 -15.590  -5.066   0.000
  172    1 -14.892  -3.857   0.000
  173    1 -13.496  -3.857   0.000
  174    1 -16.986  -2.648   0.000
  175    1 -15.590  -2.648   0.000
  176    1 -14.892  -1.439   0.000
  177    1 -13.496  -1.439   0.000
  178    1 -12.798 -29.246   0.000
  179    1 -11.402 -29.246   0.000
  180    1 -10.704 -28.037   0.000
  181    1  -9.308 -28.037   0.000
  182    1 -12.798 -26.828   0.000
  183    1 -11.402 -26.828   0.000
  184    1 -10.704 -25.619   0.000
  185    1  -9.308 -25.619   0.000
  186    1 -12.798 -24.410   0.000
  187    1 -11.402 -24.410   0.000
  188    1 -10.704 -23.201   0.000
  189    1  -9.308 -23.201   0.000
  190    1 -12.798 -21.992   0.000
  191    1 -11.402 -21.992   0.000
  192    1 -10.704 -20.783   0.000
  193    1  -9.308 -20.783   0.000
  194    1  -9.308 -18.365   0.000
  195    1  -9.308 -11.111   0.000
  196    1 -10.704  -8.693   0.000
  197    1  -9.308  -8.693   0.000
  198    1 -12.798  -7.484   0.000
  199    1 -11.402  -7.484   0.000
  200    1 -10.704  -6.275   0.000
  201    1  -9.308  -6.275   0.000
  202    1 -12.798  -5.066   0.000
  203    1 -11.402  -5.066   0.000
  204    1 -10.704  -3.857   0.000
  205    1  -9.308  -3.857   0.000
  206    1 -12.798  -2.648   0.000
  207    1 -11.402  -2.648   0.000
  208    1 -10.704  -1.439   0.000
  209    1  -9.308  -1.439   0.000
  210    1  -8.610 -29.246   0.000
  211    1  -7.214 -29.246   0.000
  212    1  -6.516 -28.037   0.000
  213    1  -5.120 -28.037   0.000
  214    1  -8.610 -26.828   0.000
  215    1  -7.214 -26.828   0.000
  216    1  -6.516 -25.619   0.000
  217    1  -5.120 -25.619   0.000
  218    1  -8.610 -24.410   0.000
  219    1  -7.214 -24.410   0.000
  220    1  -6.516 -23.201   0.000
  221    1  -5.120 -23.201   0.000
  222    1  -8.610 -21.992   0.000
  223    1  -7.214 -21.992   0.000
  224    1  -6.516 -20.783   0.000
  225    1  -5.120 -20.783   0.000
  226    1  -8.610 -19.574   0.000
  227    1  -7.214 -19.574   0.000
  228    1  -6.516 -18.365   0.000
  229    1  -5.120 -18.365   0.000
  230    1  -8.610 -17.156   0.000
  231    1  -7.214 -17.156   0.000
  232    1  -6.516 -15.947   0.000
  233    1  -5.120 -15.947   0.000
  234    1  -8.610 -14.738   0.000
  235    1  -7.214 -14.738   0.000
  236    1  -6.516 -13.529   0.000
  237    1  -5.120 -13.529   0.000
  238    1  -8.610 -12.320   0.000
  239    1  -7.214 -12.320   0.000
  240    1  -6.516 -11.111   0.000
  241    1  -5.120 -11.111   0.000
  242    1  -8.610  -9.902   0.000
  243    1  -7.214  -9.902   0.000
  244    1  -6.516  -8.693   0.000
  245    1  -5.120  -8.693   0.000
  246    1  -8.610  -7.484   0.000
  247    1  -7.214  -7.484   0.000
  248    1  -6.516  -6.275   0.000
  249    1  -5.120  -6.275   0.000
  250    1  -8.610  -5.066   0.000
  251    1  -7.214  -5.066   0.000
  252    1  -6.516  -3.857   0.000
  253    1  -5.120  -3.857   0.000
  254    1  -8.610  -2.648   0.000
  255    1  -7.214  -2.648   0.000
  256    1  -6.516  -1.439   0.000
  257    1  -5.120  -1.439   0.000
  258    1  -4.422 -29.246   0.000
  259    1  -3.026 -29.246   0.000
  260    1  -2.328 -28.037   0.000
  261    1  -0.932 -28.037   0.000
  262    1  -4.422 -26.828   0.000
  263    1  -3.026 -26.828   0.000
  264    1  -2.328 -25.619   0.000
  265    1  -0.932 -25.619   0.000
  266    1  -4.422 -24.410   0.000
  267    1  -3.026 -24.410   0.000
  268    1  -2.328 -23.201   0.000
  269    1  -0.932 -23.201   0.000
  270    1  -4.422 -21.992   0.000
  271    1  -3.026 -21.992   0.000
  272    1  -2.328 -20.783   0.000
  273    1  -0.932 -20.783   0.000
  274    1  -4.422 -19.574   0.000
  275    1  -3.026 -19.574   0.000
  276    1  -2.328 -18.365   0.000
  277    1  -0.932 -18.365   0.000
  278    1  -4.422 -17.156   0.000
  279    1  -3.026 -17.156   0.000
  280    1  -2.328 -15.947   0.000
  281    1  -0.932 -15.947   0.000
  282    1  -4.422 -14.738   0.000
  283    1  -3.026 -14.738   0.000
  284    1  -2.328 -13.529   0.000
  285    1  -0.932 -13.529   0.000
  286    1  -4.422 -12.320   0.000
  287    1  -3.026 -12.320   0.000
  288    1  -2.328 -11.111   0.000
  289    1  -0.932 -11.111   0.000
  290    1  -4.422  -9.902   0.000
  291    1  -3.026  -9.902   0.000
  292    1  -2.328  -8.693   0.000
  293    1  -0.932  -8.693   0.000
  294    1  -4.422  -7.484   0.000
  295    1  -3.026  -7.484   0.000
  296    1  -2.328  -6.275   0.000
  297    1  -0.932  -6.275   0.000
  298    1  -4.422  -5.066   0.000
  299    1  -3.026  -5.066   0.000
  300    1  -2.328  -3.857   0.000
  301    1  -0.932  -3.857   0.000
  302    1  -4.422  -2.648   0.000
  303    1  -3.026  -2.648   0.000
  304    1  -2.328  -1.439   0.000
  305    1  -0.932  -1.439   0.000
  306    1 -33.738  -0.076   0.000
  307    1 -32.342  -0.076   0.000
  308    1 -31.644   1.133   0.000
  309    1 -30.248   1.133   0.000
  310    1 -33.738   2.342   0.000
  311    1 -32.342   2.342   0.000
  312    1 -31.644   3.551   0.000
  313    1 -30.248   3.551   0.000
  314    1 -33.738   4.760   0.000
  315    1 -32.342   4.760   0.000
  316    1 -31.644   5.969   0.000
  317    1 -30.248   5.969   0.000
  318    1 -33.738   7.178   0.000
  319    1 -32.342   7.178   0.000
  320    1 -31.644   8.387   0.000
  321    1 -30.248   8.387   0.000
  322    1 -33.738   9.596   0.000
  323    1 -32.342   9.596   0.000
  324    1 -31.644  10.805   0.000
  325    1 -30.248  10.805   0.000
  326    1 -33.738  12.013   0.000
  327    1 -32.342  12.013   0.000
  328    1 -31.644  13.222   0.000
  329    1 -30.248  13.222   0.000
  330    1 -33.738  14.431   0.000
  331    1 -32.342  14.431   0.000
  332    1 -31.644  15.640   0.000
  333    1 -30.248  15.640   0.000
  334    1 -33.738  16.849   0.000
  335    1 -32.342  16.849   0.000
  336    1 -31.644  18.058   0.000
  337    1 -30.248  18.058   0.000
  338    1 -33.738  19.267   0.000
  339    1 -32.342  19.267   0.000
  340    1 -31.644  20.476   0.000
  341    1 -30.248  20.476   0.000
  342    1 -33.738  21.685   0.000
  343    1 -32.342  21.685   0.000
  344    1 -31.644  22.894   0.000
  345    1 -30.248  22.894   0.000
  346    1 -33.738  24.103   0.000
  347    1 -32.342  24.103   0.000
  348    1 -31.644  25.312   0.000
  349    1 -30.248  25.312   0.000
  350    1 -33.738  26.521   0.000
  351    1 -32.342  26.521   0.000
  352    1 -31.644  27.730   0.000
  353    1 -30.248  27.730   0.000
  354    1 -29.550  -0.076   0.000
  355    1 -28.154  -0.076   0.000
  356    1 -27.456   1.133   0.000
  357    1 -26.060   1.133   0.000
  358    1 -29.550   2.342   0.000
  359    1 -28.154   2.342   0.000
  360    1 -27.456   3.551   0.000
  361    1 -26.060   3.551   0.000
  362    1 -29.550   4.760   0.000
  363    1 -28.154   4.760   0.000
  364    1 -27.456   5.969   0.000
  365    1 -26.060   5.969   0.000
  366    1 -29.550   7.178   0.000
  367    1 -28.154   7.178   0.000
  368    1 -27.456   8.387   0.000
  369    1 -26.060   8.387   0.000
  370    1 -29.550   9.596   0.000
  371    1 -28.154   9.596   0.000
  372    1 -27.456  10.805   0.000
  373    1 -26.060  10.805   0.000
  374    1 -29.550  12.013   0.000
  375    1 -28.154  12.013   0.000
  376    1 -27.456  13.222   0.000
  377    1 -26.060  13.222   0.000
  378    1 -29.550  14.431   0.000
  379    1 -28.154  14.431   0.000
  380    1 -27.456  15.640   0.000
  381    1 -26.060  15.640   0.000
  382    1 -29.550  16.849   0.000
  383    1 -28.154  16.849   0.000
  384    1 -27.456  18.058   0.000
  385    1 -26.060  18.058   0.000
  386    1 -29.550  19.267   0.000
  387    1 -28.154  19.267   0.000
  388    1 -27.456  20.476   0.000
  389    1 -26.060  20.476   0.000
  390    1 -29.550  21.685   0.000
  391    1 -28.154  21.685   0.000
  392    1 -27.456  22.894   0.000
  393    1 -26.060  22.894   0.000
  394    1 -29.550  24.103   0.000
  395    1 -28.154  24.103   0.000
  396    1 -27.456  25.312   0.000
  397    1 -26.060  25.312   0.000
  398    1 -29.550  26.521   0.000
  399    1 -28.154  26.521   0.000
  400    1 -27.456  27.730   0.000
  401    1 -26.060  27.730   0.000
  402    1 -25.362  -0.076   0.000
  403    1 -23.966  -0.076   0.000
  404    1 -23.268   1.133   0.000
  405    1 -21.872   1.133   0.000
  406    1 -25.362   2.342   0.000
  407    1 -23.966   2.342   0.000
  408    1 -23.268   3.551   0.000
  409    1 -21.872   3.551   0.000
  410    1 -25.362   4.760   0.000
  411    1 -23.966   4.760   0.000
  412    1 -23.268   5.969   0.000
  413    1 -21.872   5.969   0.000
  414    1 -25.362   7.178   0.000
  415    1 -23.966   7.178   0.000
  416    1 -23.268   8.387   0.000
  417    1 -25.362   9.596   0.000
  418    1 -23.966   9.596   0.000
  419    1 -25.362  12.013   0.000
  420    1 -25.362  14.431   0.000
  421    1 -25.362  16.849   0.000
  422    1 -25.362  19.267   0.000
  423    1 -23.966  19.267   0.000
  424    1 -23.268  20.476   0.000
  425    1 -25.362  21.685   0.000
  426    1 -23.966  21.685   0.000
  427    1 -23.268  22.894   0.000
  428    1 -21.872  22.894   0.000
  429    1 -25.362  24.103   0.000
  430    1 -23.966  24.103   0.000
  431    1 -23.268  25.312   0.000
  432    1 -21.872  25.312   0.000
  433    1 -25.362  26.521   0.000
  434    1 -23.966  26.521   0.000
  435    1 -23.268  27.730   0.000
  436    1 -21.872  27.730   0.000
  437    1 -21.174  -0.076   0.000
  438    1 -19.778  -0.076   0.000
  439    1 -19.080   1.133   0.000
  440    1 -17.684   1.133   0.000
  441    1 -21.174   2.342   0.000
  442    1 -19.778   2.342   0.000
  443    1 -19.080   3.551   0.000
  444    1 -17.684   3.551   0.000
  445    1 -21.174   4.760   0.000
  446    1 -19.778   4.760   0.000
  447    1 -19.080   5.969   0.000
  448    1 -17.684   5.969   0.000
  449    1 -21.174   7.178   0.000
  450    1 -21.174  21.685   0.000
  451    1 -19.080  22.894   0.000
  452    1 -17.684  22.894   0.000
  453    1 -21.174  24.103   0.000
  454    1 -19.778  24.103   0.000
  455    1 -19.080  25.312   0.000
  456    1 -17.684  25.312   0.000
  457    1 -21.174  26.521   0.000
  458    1 -19.778  26.521   0.000
  459    1 -19.080  27.730   0.000
  460    1 -17.684  27.730   0.000
  461    1 -16.986  -0.076   0.000
  462    1 -15.590  -0.076   0.000
  463    1 -14.892   1.133   0.000
  464    1 -13.496   1.133   0.000
  465    1 -16.986   2.342   0.000
  466    1 -15.590   2.342   0.000
  467    1 -14.892   3.551   0.000
  468    1 -13.496   3.551   0.000
  469    1 -16.986   4.760   0.000
  470    1 -15.590   4.760   0.000
  471    1 -14.892   5.969   0.000
  472    1 -13.496   5.969   0.000
  473    1 -14.892  22.894   0.000
  474    1 -13.496  22.894   0.000
  475    1 -16.986  24.103   0.000
  476    1 -15.590  24.103   0.000
  477    1 -14.892  25.312   0.000
  478    1 -13.496  25.312   0.000
  479    1 -16.986  26.521   0.000
  480    1 -15.590  26.521   0.000
  481    1 -14.892  27.730   0.000
  482    1 -13.496  27.730   0.000
  483    1 -12.798  -0.076   0.000
  484    1 -11.402  -0.076   0.000
  485    1 -10.704   1.133   0.000
  486    1  -9.308   1.133   0.000
  487    1 -12.798   2.342   0.000
  488    1 -11.402   2.342   0.000
  489    1 -10.704   3.551   0.000
  490    1  -9.308   3.551   0.000
  491    1 -12.798   4.760   0.000
  492    1 -11.402   4.760   0.000
  493    1 -10.704   5.969   0.000
  494    1  -9.308   5.969   0.000
  495    1 -12.798   7.178   0.000
  496    1 -11.402   7.178   0.000
  497    1 -10.704   8.387   0.000
  498    1  -9.308   8.387   0.000
  499    1  -9.308  10.805   0.000
  500    1  -9.308  18.058   0.000
  501    1 -10.704  20.476   0.000
  502    1  -9.308  20.476   0.000
  503    1 -12.798  21.685   0.000
  504    1 -11.402  21.685   0.000
  505    1 -10.704  22.894   0.000
  506    1  -9.308  22.894   0.000
  507    1 -12.798  24.103   0.000
  508    1 -11.402  24.103   0.000
  509    1 -10.704  25.312   0.000
  510    1  -9.308  25.312   0.000
  511    1 -12.798  26.521   0.000
  512    1 -11.402  26.521   0.000
  513    1 -10.704  27.730   0.000
  514    1  -9.308  27.730   0.000
  515    1  -8.610  -0.076   0.000
  516    1  -7.214  -0.076   0.000
  517    1  -6.516   1.133   0.000
  518    1  -5.120   1.133   0.000
  519    1  -8.610   2.342   0.000
  520    1  -7.214   2.342   0.000
  521    1  -6.516   3.551   0.000
  522    1  -5.120   3.551   0.000
  523    1  -8.610   4.760   0.000
  524    1  -7.214   4.760   0.000
  525    1  -6.516   5.969   0.000
  526    1  -5.120   5.969   0.000
  527    1  -8.610   7.178   0.000
  528    1  -7.214   7.178   0.000
  529    1  -6.516   8.387   0.000
  530    1  -5.120   8.387   0.000
  531    1  -8.610   9.596   0.000
  532    1  -7.214   9.596   0.000
  533    1  -6.516  10.805   0.000
  534    1  -5.120  10.805   0.000
  535    1  -8.610  12.013   0.000
  536    1  -7.214  12.013   0.000
  537    1  -6.516  13.222   0.000
  538    1  -5.120  13.222   0.000
  539    1  -8.610  14.431   0.000
  540    1  -7.214  14.431   0.000
  541    1  -6.516  15.640   0.000
  542    1  -5.120  15.640   0.000
  543    1  -8.610  16.849   0.000
  544    1  -7.214  16.849   0.000
  545    1  -6.516  18.058   0.000
  546    1  -5.120  18.058   0.000
  547    1  -8.610  19.267   0.000
  548    1  -7.214  19.267   0.000
  549    1  -6.516  20.476   0.000
  550    1  -5.120  20.476   0.000
  551    1  -8.610  21.685   0.000
  552    1  -7.214  21.685   0.000
  553    1  -6.516  22.894   0.000
  554    1  -5.120  22.894   0.000
  555    1  -8.610  24.103   0.000
  556    1  -7.214  24.103   0.000
  557    1  -6.516  25.312   0.000
  558    1  -5.120  25.312   0.000
  559    1  -8.610  26.521   0.000
  560    1  -7.214  26.521   0.000
  561    1  -6.516  27.730   0.000
  562    1  -5.120  27.730   0.000
  563    1  -4.422  -0.076   0.000
  564    1  -3.026  -0.076   0.000
  565    1  -2.328   1.133   0.000
  566    1  -0.932   1.133   0.000
  567    1  -4.422   2.342   0.000
  568    1  -3.026   2.342   0.000
  569    1  -2.328   3.551   0.000
  570    1  -0.932   3.551   0.000
  571    1  -4.422   4.760   0.000
  572    1  -3.026   4.760   0.000
  573    1  -2.328   5.969   0.000
  574    1  -0.932   5.969   0.000
  575    1  -4.422   7.178   0.000
  576    1  -3.026   7.178   0.000
  577    1  -2.328   8.387   0.000
  578    1  -0.932   8.387   0.000
  579    1  -4.422   9.596   0.000
  580    1  -3.026   9.596   0.000
  581    1  -2.328  10.805   0.000
  582    1  -0.932  10.805   0.000
  583    1  -4.422  12.013   0.000
  584    1  -3.026  12.013   0.000
  585    1  -2.328  13.222   0.000
  586    1  -0.932  13.222   0.000
  587    1  -4.422  14.431   0.000
  588    1  -3.026  14.431   0.000
  589    1  -2.328  15.640   0.000
  590    1  -0.932  15.640   0.000
  591    1  -4.422  16.849   0.000
  592    1  -3.026  16.849   0.000
  593    1  -2.328  18.058   0.000
  594    1  -0.932  18.058   0.000
  595    1  -4.422  19.267   0.000
  596    1  -3.026  19.267   0.000
  597    1  -2.328  20.476   0.000
  598    1  -0.932  20.476   0.000
  599    1  -4.422  21.685   0.000
  600    1  -3.026  21.685   0.000
  601    1  -2.328  22.894   0.000
  602    1  -0.932  22.894   0.000
  603    1  -4.422  24.103   0.000
  604    1  -3.026  24.103   0.000
  605    1  -2.328  25.312   0.000
  606    1  -0.932  25.312   0.000
  607    1  -4.422  26.521   0.000
  608    1  -3.026  26.521   0.000
  609    1  -2.328  27.730   0.000
  610    1  -0.932  27.730   0.000
  611    1 -33.738  29.093   0.000
  612    1 -32.342  29.093   0.000
  613    1 -31.644  30.302   0.000
  614    1 -30.248  30.302   0.000
  615    1 -33.738  31.511   0.000
  616    1 -32.342  31.511   0.000
  617    1 -31.644  32.720   0.000
  618    1 -30.248  32.720   0.000
  619    1 -33.738  33.929   0.000
  620    1 -32.342  33.929   0.000
  621    1 -31.644  35.138   0.000
  622    1 -30.248  35.138   0.000
  623    1 -33.738  36.347   0.000
  624    1 -32.342  36.347   0.000
  625    1 -31.644  37.556   0.000
  626    1 -30.248  37.556   0.000
  627    1 -33.738  38.765   0.000
  628    1 -32.342  38.765   0.000
  629    1 -31.644  39.974   0.000
  630    1 -30.248  39.974   0.000
  631    1 -33.738  41.183   0.000
  632    1 -32.342  41.183   0.000
  633    1 -31.644  42.392   0.000
  634    1 -30.248  42.392   0.000
  635    1 -33.738  43.601   0.000
  636    1 -32.342  43.601   0.000
  637    1 -31.644  44.810   0.000
  638    1 -30.248  44.810   0.000
  639    1 -33.738  46.019   0.000
  640    1 -32.342  46.019   0.000
  641    1 -31.644  47.228   0.000
  642    1 -30.248  47.228   0.000
  643    1 -33.738  48.437   0.000
  644    1 -32.342  48.437   0.000
  645    1 -31.644  49.646   0.000
  646    1 -30.248  49.646   0.000
  647    1 -33.738  50.855   0.000
  648    1 -32.342  50.855   0.000
  649    1 -31.644  52.064   0.000
  650    1 -30.248  52.064   0.000
  651    1 -33.738  53.273   0.000
  652    1 -32.342  53.273   0.000
  653    1 -31.644  54.482   0.000
  654    1 -30.248  54.482   0.000
  655    1 -33.738  55.690   0.000
  656    1 -32.342  55.690   0.000
  657    1 -31.644  56.899   0.000
  658    1 -30.248  56.899   0.000
  659    1 -29.550  29.093   0.000
  660    1 -28.154  29.093   0.000
  661    1 -27.456  30.302   0.000
  662    1 -26.060  30.302   0.000
  663    1 -29.550  31.511   0.000
  664    1 -28.154  31.511   0.000
  665    1 -27.456  32.720   0.000
  666    1 -26.060  32.720   0.000
  667    1 -29.550  33.929   0.000
  668    1 -28.154  33.929   0.000
  669    1 -27.456  35.138   0.000
  670    1 -26.060  35.138   0.000
  671    1 -29.550  36.347   0.000
  672    1 -28.154  36.347   0.000
  673    1 -27.456  37.556   0.000
  674    1 -26.060  37.556   0.000
  675    1 -29.550  38.765   0.000
  676    1 -28.154  38.765   0.000
  677    1 -27.456  39.974   0.000
  678    1 -26.060  39.974   0.000
  679    1 -29.550  41.183   0.000
  680    1 -28.154  41.183   0.000
  681    1 -27.456  42.392   0.000
  682    1 -26.060  42.392   0.000
  683    1 -29.550  43.601   0.000
  684    1 -28.154  43.601   0.000
  685    1 -27.456  44.810   0.000
  686    1 -26.060  44.810   0.000
  687    1 -29.550  46.019   0.000
  688    1 -28.154  46.019   0.000
  689    1 -27.456  47.228   0.000
  690    1 -26.060  47.228   0.000
  691    1 -29.550  48.437   0.000
  692    1 -28.154  48.437   0.000
  693    1 -27.456  49.646   0.000
  694    1 -26.060  49.646   0.000
  695    1 -29.550  50.855   0.000
  696    1 -28.154  50.855   0.000
  697    1 -27.456  52.064   0.000
  698    1 -26.060  52.064   0.000
  699    1 -29.550  53.273   0.000
  700    1 -28.154  53.273   0.000
  701    1 -27.456  54.482   0.000
  702    1 -26.060  54.482   0.000
  703    1 -29.550  55.690   0.000
  704    1 -28.154  55.690   0.000
  705    1 -27.456  56.899   0.000
  706    1 -26.060  56.899   0.000
  707    1 -25.362  29.093   0.000
  708    1 -23.966  29.093   0.000
  709    1 -23.268  30.302   0.000
  710    1 -21.872  30.302   0.000
  711    1 -25.362  31.511   0.000
  712    1 -23.966  31.511   0.000
  713    1 -23.268  32.720   0.000
  714    1 -21.872  32.720   0.000
  715    1 -25.362  33.929   0.000
  716    1 -23.966  33.929   0.000
  717    1 -23.268  35.138   0.000
  718    1 -21.872  35.138   0.000
  719    1 -25.362  36.347   0.000
  720    1 -23.966  36.347   0.000
  721    1 -23.268  37.556   0.000
  722    1 -25.362  38.765   0.000
  723    1 -23.966  38.765   0.000
  724    1 -25.362  41.183   0.000
  725    1 -25.362  43.601   0.000
  726    1 -25.362  46.019   0.000
  727    1 -25.362  48.437   0.000
  728    1 -23.966  48.437   0.000
  729    1 -23.268  49.646   0.000
  730    1 -25.362  50.855   0.000
  731    1 -23.966  50.855   0.000
  732    1 -23.268  52.064   0.000
  733    1 -21.872  52.064   0.000
  734    1 -25.362  53.273   0.000
  735    1 -23.966  53.273   0.000
  736    1 -23.268  54.482   0.000
  737    1 -21.872  54.482   0.000
  738    1 -25.362  55.690   0.000
  739    1 -23.966  55.690   0.000
  740    1 -23.268  56.899   0.000
  741    1 -21.872  56.899   0.000
  742    1 -21.174  29.093   0.000
  743    1 -19.778  29.093   0.000
  744    1 -19.080  30.302   0.000
  745    1 -17.684  30.302   0.000
  746    1 -21.174  31.511   0.000
  747    1 -19.778  31.511   0.000
  748    1 -19.080  32.720   0.000
  749    1 -17.684  32.720   0.000
  750    1 -21.174  33.929   0.000
  751    1 -19.778  33.929   0.000
  752    1 -19.080  35.138   0.000
  753    1 -17.684  35.138   0.000
  754    1 -21.174  36.347   0.000
  755    1 -21.174  50.855   0.000
  756    1 -19.080  52.064   0.000
  757    1 -17.684  52.064   0.000
  758    1 -21.174  53.273   0.000
  759    1 -19.778  53.273   0.000
  760    1 -19.080  54.482   0.000
  761    1 -17.684  54.482   0.000
  762    1 -21.174  55.690   0.000
  763    1 -19.778  55.690   0.000
  764    1 -19.080  56.899   0.000
  765    1 -17.684  56.899   0.000
  766    1 -16.986  29.093   0.000
  767    1 -15.590  29.093   0.000
  768    1 -14.892  30.302   0.000
  769    1 -13.496  30.302   0.000
  770    1 -16.986  31.511   0.000
  771    1 -15.590  31.511   0.000
  772    1 -14.892  32.720   0.000
  773    1 -13.496  32.720   0.000
  774    1 -16.986  33.929   0.000
  775    1 -15.590  33.929   0.000
  776    1 -14.892  35.138   0.000
  777    1 -13.496  35.138   0.000
  778    1 -14.892  52.064   0.000
  779    1 -13.496  52.064   0.000
  780    1 -16.986  53.273   0.000
  781    1 -15.590  53.273   0.000
  782    1 -14.892  54.482   0.000
  783    1 -13.496  54.482   0.000
  784    1 -16.986  55.690   0.000
  785    1 -15.590  55.690   0.000
  786    1 -14.892  56.899   0.000
  787    1 -13.496  56.899   0.000
  788    1 -12.798  29.093   0.000
  789    1 -11.402  29.093   0.000
  790    1 -10.704  30.302   0.000
  791    1  -9.308  30.302   0.000
  792    1 -12.798  31.511   0.000
  793    1 -11.402  31.511   0.000
  794    1 -10.704  32.720   0.000
  795    1  -9.308  32.720   0.000
  796    1 -12.798  33.929   0.000
  797    1 -11.402  33.929   0.000
  798    1 -10.704  35.138   0.000
  799    1  -9.308  35.138   0.000
  800    1 -12.798  36.347   0.000
  801    1 -11.402  36.347   0.000
  802    1 -10.704  37.556   0.000
  803    1  -9.308  37.556   0.000
  804    1  -9.308  39.974   0.000
  805    1  -9.308  47.228   0.000
  806    1 -10.704  49.646   0.000
  807    1  -9.308  49.646   0.000
  808    1 -12.798  50.855   0.000
  809    1 -11.402  50.855   0.000
  810    1 -10.704  52.064   0.000
  811    1  -9.308  52.064   0.000
  812    1 -12.798  53.273   0.000
  813    1 -11.402  53.273   0.000
  814    1 -10.704  54.482   0.000
  815    1  -9.308  54.482   0.000
  816    1 -12.798  55.690   0.000
  817    1 -11.402  55.690   0.000
  818    1 -10.704  56.899   0.000
  819    1  -9.308  56.899   0.000
  820    1  -8.610  29.093   0.000
  821    1  -7.214  29.093   0.000
  822    1  -6.516  30.302   0.000
  823    1  -5.120  30.302   0.000
  824    1  -8.610  31.511   0.000
  825    1  -7.214  31.511   0.000
  826    1  -6.516  32.720   0.000
  827    1  -5.120  32.720   0.000