   1   1   0   0
  0.1581021E+02  0.2817199E-09  0.2817199E-09  0.2817199E-09  0.1500000E-16
  1.000000000000000E-004
  CAR 
 unknown system                          
     80.68357598     -7.14808090  301      8.23932792      1.00000000
     -7.148  0.0000E+00  0.0000E+00
     -6.855  0.0000E+00  0.0000E+00
     -6.563  0.0000E+00  0.0000E+00
     -6.270  0.0000E+00  0.0000E+00
     -5.977  0.0000E+00  0.0000E+00
     -5.684  0.0000E+00  0.0000E+00
     -5.391  0.0000E+00  0.0000E+00
     -5.099  0.0000E+00  0.0000E+00
     -4.806 -0.5855E-34 -0.1714E-34
     -4.513 -0.2315E-24 -0.6776E-25
     -4.220 -0.1257E-16 -0.3679E-17
     -3.928 -0.9823E-11 -0.2876E-11
     -3.635 -0.1070E-06 -0.3134E-07
     -3.342 -0.1298E-04 -0.3831E-05
     -3.049  0.2078E-03  0.5699E-04
     -2.756  0.1104E-02  0.3802E-03
     -2.464  0.1675E-02  0.8706E-03
     -2.171  0.2085E-02  0.1481E-02
     -1.878  0.2432E-02  0.2193E-02
     -1.585  0.2734E-02  0.2994E-02
     -1.293  0.2989E-02  0.3869E-02
     -1.000  0.3239E-02  0.4817E-02
     -0.707  0.3558E-02  0.5859E-02
     -0.414  0.3747E-02  0.6956E-02
     -0.122  0.3845E-02  0.8081E-02
      0.171  0.4273E-02  0.9332E-02
      0.464  0.4272E-02  0.1058E-01
      0.757  0.4540E-02  0.1191E-01
      1.050  0.4826E-02  0.1333E-01
      1.342  0.4791E-02  0.1473E-01
      1.635  0.5251E-02  0.1627E-01
      1.928  0.5050E-02  0.1774E-01
      2.221  0.5656E-02  0.1940E-01
      2.513  0.5400E-02  0.2098E-01
      2.806  0.5951E-02  0.2272E-01
      3.099  0.5931E-02  0.2446E-01
      3.392  0.6116E-02  0.2625E-01
      3.684  0.6413E-02  0.2813E-01
      3.977  0.6147E-02  0.2993E-01
      4.270  0.6891E-02  0.3194E-01
      4.563  0.6335E-02  0.3380E-01
      4.856  0.7375E-02  0.3596E-01
      5.148  0.7045E-02  0.3802E-01
      5.441  0.7688E-02  0.4027E-01
      5.734  0.7613E-02  0.4250E-01
      6.027  0.7251E-02  0.4462E-01
      6.319  0.7068E-02  0.4669E-01
      6.612  0.7005E-02  0.4874E-01
      6.905  0.7046E-02  0.5081E-01
      7.198  0.7870E-02  0.5311E-01
      7.491  0.7945E-02  0.5544E-01
      7.783  0.7331E-02  0.5758E-01
      8.076  0.7806E-02  0.5987E-01
      8.369  0.8029E-02  0.6222E-01
      8.662  0.7894E-02  0.6453E-01
      8.954  0.9130E-02  0.6720E-01
      9.247  0.8017E-02  0.6955E-01
      9.540  0.8135E-02  0.7193E-01
      9.833  0.9370E-02  0.7468E-01
     10.125  0.7685E-02  0.7693E-01
     10.418  0.9661E-02  0.7975E-01
     10.711  0.8655E-02  0.8229E-01
     11.004  0.9064E-02  0.8494E-01
     11.297  0.9455E-02  0.8771E-01
     11.589  0.9217E-02  0.9041E-01
     11.882  0.9792E-02  0.9327E-01
     12.175  0.9210E-02  0.9597E-01
     12.468  0.1031E-01  0.9899E-01
     12.760  0.9847E-02  0.1019E+00
     13.053  0.9957E-02  0.1048E+00
     13.346  0.1081E-01  0.1080E+00
     13.639  0.1033E-01  0.1110E+00
     13.932  0.1100E-01  0.1142E+00
     14.224  0.1220E-01  0.1178E+00
     14.517  0.1131E-01  0.1211E+00
     14.810  0.1112E-01  0.1243E+00
     15.103  0.1165E-01  0.1277E+00
     15.395  0.9971E-02  0.1307E+00
     15.688  0.1119E-01  0.1339E+00
     15.981  0.1048E-01  0.1370E+00
     16.274  0.1076E-01  0.1402E+00
     16.566  0.1041E-01  0.1432E+00
     16.859  0.1105E-01  0.1464E+00
     17.152  0.1014E-01  0.1494E+00
     17.445  0.1091E-01  0.1526E+00
     17.738  0.1038E-01  0.1557E+00
     18.030  0.1114E-01  0.1589E+00
     18.323  0.1087E-01  0.1621E+00
     18.616  0.1164E-01  0.1655E+00
     18.909  0.1089E-01  0.1687E+00
     19.201  0.1190E-01  0.1722E+00
     19.494  0.1183E-01  0.1756E+00
     19.787  0.1253E-01  0.1793E+00
     20.080  0.1380E-01  0.1833E+00
     20.373  0.1361E-01  0.1873E+00
     20.665  0.1292E-01  0.1911E+00
     20.958  0.1355E-01  0.1951E+00
     21.251  0.1296E-01  0.1989E+00
     21.544  0.1269E-01  0.2026E+00
     21.836  0.1234E-01  0.2062E+00
     22.129  0.1098E-01  0.2094E+00
     22.422  0.1381E-01  0.2135E+00
     22.715  0.1128E-01  0.2168E+00
     23.007  0.1209E-01  0.2203E+00
     23.300  0.1369E-01  0.2243E+00
     23.593  0.1445E-01  0.2285E+00
     23.886  0.1351E-01  0.2325E+00
     24.179  0.1254E-01  0.2362E+00
     24.471  0.1399E-01  0.2403E+00
     24.764  0.1455E-01  0.2445E+00
     25.057  0.1369E-01  0.2485E+00
     25.350  0.1356E-01  0.2525E+00
     25.642  0.1694E-01  0.2575E+00
     25.935  0.1302E-01  0.2613E+00
     26.228  0.1583E-01  0.2659E+00
     26.521  0.1358E-01  0.2699E+00
     26.813  0.1624E-01  0.2746E+00
     27.106  0.1446E-01  0.2789E+00
     27.399  0.1503E-01  0.2833E+00
     27.692  0.1335E-01  0.2872E+00
     27.985  0.1456E-01  0.2914E+00
     28.277  0.1488E-01  0.2958E+00
     28.570  0.1300E-01  0.2996E+00
     28.863  0.1466E-01  0.3039E+00
     29.156  0.1472E-01  0.3082E+00
     29.448  0.1665E-01  0.3131E+00
     29.741  0.1670E-01  0.3180E+00
     30.034  0.1519E-01  0.3224E+00
     30.327  0.1584E-01  0.3271E+00
     30.620  0.1649E-01  0.3319E+00
     30.912  0.1539E-01  0.3364E+00
     31.205  0.1592E-01  0.3411E+00
     31.498  0.1519E-01  0.3455E+00
     31.791  0.1669E-01  0.3504E+00
     32.083  0.1706E-01  0.3554E+00
     32.376  0.1674E-01  0.3603E+00
     32.669  0.1802E-01  0.3656E+00
     32.962  0.1553E-01  0.3701E+00
     33.254  0.1752E-01  0.3752E+00
     33.547  0.1707E-01  0.3802E+00
     33.840  0.1528E-01  0.3847E+00
     34.133  0.1434E-01  0.3889E+00
     34.426  0.1256E-01  0.3926E+00
     34.718  0.1394E-01  0.3967E+00
     35.011  0.1044E-01  0.3997E+00
     35.304  0.9641E-02  0.4025E+00
     35.597  0.7990E-02  0.4049E+00
     35.889  0.8273E-02  0.4073E+00
     36.182  0.6952E-02  0.4093E+00
     36.475  0.6066E-02  0.4111E+00
     36.768  0.5655E-02  0.4128E+00
     37.061  0.8210E-02  0.4152E+00
     37.353  0.8533E-02  0.4177E+00
     37.646  0.8395E-02  0.4201E+00
     37.939  0.9258E-02  0.4228E+00
     38.232  0.1076E-01  0.4260E+00
     38.524  0.1141E-01  0.4293E+00
     38.817  0.1031E-01  0.4324E+00
     39.110  0.1131E-01  0.4357E+00
     39.403  0.1144E-01  0.4390E+00
     39.695  0.1330E-01  0.4429E+00
     39.988  0.1275E-01  0.4466E+00
     40.281  0.1380E-01  0.4507E+00
     40.574  0.1428E-01  0.4549E+00
     40.867  0.1744E-01  0.4600E+00
     41.159  0.2076E-01  0.4660E+00
     41.452  0.1956E-01  0.4718E+00
     41.745  0.1950E-01  0.4775E+00
     42.038  0.1810E-01  0.4828E+00
     42.330  0.1850E-01  0.4882E+00
     42.623  0.1811E-01  0.4935E+00
     42.916  0.1972E-01  0.4993E+00
     43.209  0.1982E-01  0.5051E+00
     43.502  0.1944E-01  0.5108E+00
     43.794  0.2003E-01  0.5166E+00
     44.087  0.2167E-01  0.5230E+00
     44.380  0.1955E-01  0.5287E+00
     44.673  0.2215E-01  0.5352E+00
     44.965  0.2105E-01  0.5413E+00
     45.258  0.1734E-01  0.5464E+00
     45.551  0.1711E-01  0.5514E+00
     45.844  0.1787E-01  0.5567E+00
     46.136  0.1565E-01  0.5612E+00
     46.429  0.1470E-01  0.5656E+00
     46.722  0.1590E-01  0.5702E+00
     47.015  0.1720E-01  0.5752E+00
     47.308  0.1985E-01  0.5811E+00
     47.600  0.2071E-01  0.5871E+00
     47.893  0.1982E-01  0.5929E+00
     48.186  0.1893E-01  0.5985E+00
     48.479  0.1748E-01  0.6036E+00
     48.771  0.2026E-01  0.6095E+00
     49.064  0.1695E-01  0.6145E+00
     49.357  0.1452E-01  0.6187E+00
     49.650  0.1475E-01  0.6230E+00
     49.942  0.1957E-01  0.6288E+00
     50.235  0.1988E-01  0.6346E+00
     50.528  0.2012E-01  0.6405E+00
     50.821  0.1714E-01  0.6455E+00
     51.114  0.1792E-01  0.6507E+00
     51.406  0.1747E-01  0.6559E+00
     51.699  0.1486E-01  0.6602E+00
     51.992  0.1693E-01  0.6652E+00
     52.285  0.1646E-01  0.6700E+00
     52.577  0.1639E-01  0.6748E+00
     52.870  0.1673E-01  0.6797E+00
     53.163  0.1932E-01  0.6853E+00
     53.456  0.1685E-01  0.6903E+00
     53.749  0.1836E-01  0.6957E+00
     54.041  0.1922E-01  0.7013E+00
     54.334  0.1535E-01  0.7058E+00
     54.627  0.1630E-01  0.7105E+00
     54.920  0.1864E-01  0.7160E+00
     55.212  0.1847E-01  0.7214E+00
     55.505  0.1944E-01  0.7271E+00
     55.798  0.1919E-01  0.7327E+00
     56.091  0.1862E-01  0.7382E+00
     56.383  0.2291E-01  0.7449E+00
     56.676  0.2357E-01  0.7518E+00
     56.969  0.2098E-01  0.7579E+00
     57.262  0.2447E-01  0.7651E+00
     57.555  0.2475E-01  0.7723E+00
     57.847  0.1821E-01  0.7777E+00
     58.140  0.2219E-01  0.7842E+00
     58.433  0.2415E-01  0.7912E+00
     58.726  0.2699E-01  0.7991E+00
     59.018  0.3144E-01  0.8083E+00
     59.311  0.3012E-01  0.8172E+00
     59.604  0.2286E-01  0.8238E+00
     59.897  0.2618E-01  0.8315E+00
     60.190  0.2667E-01  0.8393E+00
     60.482  0.3439E-01  0.8494E+00
     60.775  0.3435E-01  0.8594E+00
     61.068  0.3371E-01  0.8693E+00
     61.361  0.3270E-01  0.8789E+00
     61.653  0.3668E-01  0.8896E+00
     61.946  0.3084E-01  0.8987E+00
     62.239  0.3731E-01  0.9096E+00
     62.532  0.3047E-01  0.9185E+00
     62.824  0.3406E-01  0.9285E+00
     63.117  0.3135E-01  0.9377E+00
     63.410  0.3754E-01  0.9486E+00
     63.703  0.3601E-01  0.9592E+00
     63.996  0.3646E-01  0.9699E+00
     64.288  0.2963E-01  0.9785E+00
     64.581  0.3499E-01  0.9888E+00
     64.874  0.3549E-01  0.9992E+00
     65.167  0.3447E-01  0.1009E+01
     65.459  0.3525E-01  0.1020E+01
     65.752  0.3100E-01  0.1029E+01
     66.045  0.3431E-01  0.1039E+01
     66.338  0.2983E-01  0.1047E+01
     66.631  0.2602E-01  0.1055E+01
     66.923  0.2046E-01  0.1061E+01
     67.216  0.2550E-01  0.1069E+01
     67.509  0.2335E-01  0.1075E+01
     67.802  0.2170E-01  0.1082E+01
     68.094  0.2044E-01  0.1088E+01
     68.387  0.1813E-01  0.1093E+01
     68.680  0.1798E-01  0.1098E+01
     68.973  0.1719E-01  0.1103E+01
     69.265  0.1640E-01  0.1108E+01
     69.558  0.1474E-01  0.1112E+01
     69.851  0.1425E-01  0.1117E+01
     70.144  0.9215E-02  0.1119E+01
     70.437  0.8426E-02  0.1122E+01
     70.729  0.7047E-02  0.1124E+01
     71.022  0.6390E-02  0.1126E+01
     71.315  0.6023E-02  0.1127E+01
     71.608  0.6494E-02  0.1129E+01
     71.900  0.6122E-02  0.1131E+01
     72.193  0.4328E-02  0.1132E+01
     72.486  0.4906E-02  0.1134E+01
     72.779  0.5435E-02  0.1135E+01
     73.071  0.4431E-02  0.1137E+01
     73.364  0.3954E-02  0.1138E+01
     73.657  0.3694E-02  0.1139E+01
     73.950  0.2517E-02  0.1140E+01
     74.243  0.3722E-02  0.1141E+01
     74.535  0.2895E-02  0.1142E+01
     74.828  0.2071E-02  0.1142E+01
     75.121  0.1129E-02  0.1143E+01
     75.414  0.5117E-03  0.1143E+01
     75.706  0.2208E-03  0.1143E+01
     75.999  0.1585E-03  0.1143E+01
     76.292  0.3086E-04  0.1143E+01
     76.585  0.3104E-04  0.1143E+01
     76.878  0.3042E-05  0.1143E+01
     77.170 -0.1145E-06  0.1143E+01
     77.463 -0.7768E-08  0.1143E+01
     77.756 -0.1473E-11  0.1143E+01
     78.049 -0.3049E-17  0.1143E+01
     78.341  0.0000E+00  0.1143E+01
     78.634  0.0000E+00  0.1143E+01
     78.927  0.0000E+00  0.1143E+01
     79.220  0.0000E+00  0.1143E+01
     79.512  0.0000E+00  0.1143E+01
     79.805  0.0000E+00  0.1143E+01
     80.098  0.0000E+00  0.1143E+01
     80.391  0.0000E+00  0.1143E+01
     80.684  0.0000E+00  0.1143E+01
