 running on   28 total cores
 distrk:  each k-point on   28 cores,    1 groups
 distr:  one band on    1 cores,   28 groups
 using from now: INCAR     
 vasp.5.4.4.18Apr17-6-g9f103f2a35 (build Aug 15 2019 10:58:36) complex          
  
 POSCAR found type information on POSCAR  Al
 POSCAR found :  1 types and       1 ions
 scaLAPACK will be used

 ----------------------------------------------------------------------------- 
|                                                                             |
|           W    W    AA    RRRRR   N    N  II  N    N   GGGG   !!!           |
|           W    W   A  A   R    R  NN   N  II  NN   N  G    G  !!!           |
|           W    W  A    A  R    R  N N  N  II  N N  N  G       !!!           |
|           W WW W  AAAAAA  RRRRR   N  N N  II  N  N N  G  GGG   !            |
|           WW  WW  A    A  R   R   N   NN  II  N   NN  G    G                |
|           W    W  A    A  R    R  N    N  II  N    N   GGGG   !!!           |
|                                                                             |
|      For optimal performance we recommend to set                            |
|        NCORE= 4 - approx SQRT( number of cores)                             |
|      NCORE specifies how many cores store one orbital (NPAR=cpu/NCORE).     |
|      This setting can  greatly improve the performance of VASP for DFT.     |
|      The default,   NCORE=1            might be grossly inefficient         |
|      on modern multi-core architectures or massively parallel machines.     |
|      Do your own testing !!!!                                               |
|      Unfortunately you need to use the default for GW and RPA calculations. |
|      (for HF NCORE is supported but not extensively tested yet)             |
|                                                                             |
 ----------------------------------------------------------------------------- 

 LDA part: xc-table for Ceperly-Alder, standard interpolation
 POSCAR, INCAR and KPOINTS ok, starting setup
 FFT: planning ...
 WAVECAR not read
 WARNING: random wavefunctions but no delay for mixing, default for NELMDL
 entering main loop
       N       E                     dE             d eps       ncg     rms          rms(c)
DAV:   1    -0.402747677257E+01   -0.40275E+01   -0.82078E+02 64680   0.514E+01
DAV:   2    -0.422312713788E+01   -0.19565E+00   -0.19454E+00 75236   0.299E+00
DAV:   3    -0.422314797714E+01   -0.20839E-04   -0.20839E-04 55412   0.335E-02
DAV:   4    -0.422314797742E+01   -0.27725E-09   -0.71223E-09 87724   0.159E-04
DAV:   5    -0.422314797807E+01   -0.65106E-09    0.11734E-13 55608   0.623E-08    0.947E-01
DAV:   6    -0.420505364098E+01    0.18094E-01   -0.23709E-03 56532   0.552E-02    0.583E-01
DAV:   7    -0.419329686330E+01    0.11757E-01   -0.63152E-03 60144   0.893E-02    0.240E-02
DAV:   8    -0.419329280160E+01    0.40617E-05   -0.17746E-06 55916   0.245E-03    0.597E-03
DAV:   9    -0.419329234650E+01    0.45510E-06   -0.19706E-07 80556   0.637E-04
   1 F= -.41932923E+01 E0= -.41933121E+01  d E =0.592028E-04
 Found     1 degrees of freedom:
 Adding 6 more for cell shape distortion
 Finite differences POTIM= 0.01500 DOF=   7
 bond charge predicted
       N       E                     dE             d eps       ncg     rms          rms(c)
DAV:   1    -0.419205090403E+01    0.12419E-02   -0.21439E-02198716   0.167E-01    0.651E-02
DAV:   2    -0.419197275309E+01    0.78151E-04   -0.16704E-05136528   0.643E-03    0.399E-02
DAV:   3    -0.419192366485E+01    0.49088E-04   -0.32107E-05217140   0.594E-03    0.131E-03
DAV:   4    -0.419192363993E+01    0.24927E-07   -0.12208E-08136164   0.215E-04
   2 F= -.41919236E+01 E0= -.41919078E+01  d E =-.475208E-04
 Finite differences progress:
  Degree of freedom:   1/  7
  Displacement:        1/  2
  Total:               1/ 14
 bond charge predicted
       N       E                     dE             d eps       ncg     rms          rms(c)
DAV:   1    -0.419226377297E+01   -0.34011E-03   -0.65585E-02201768   0.298E-01    0.128E-01
DAV:   2    -0.419196927135E+01    0.29450E-03   -0.54069E-05137312   0.113E-02    0.790E-02
DAV:   3    -0.419178286310E+01    0.18641E-03   -0.11482E-04213248   0.114E-02    0.250E-03
DAV:   4    -0.419178279099E+01    0.72116E-07   -0.37936E-08137032   0.408E-04
   3 F= -.41917828E+01 E0= -.41917702E+01  d E =-.379127E-04
 Finite differences progress:
  Degree of freedom:   1/  7
  Displacement:        2/  2
  Total:               2/ 14
 bond charge predicted
       N       E                     dE             d eps       ncg     rms          rms(c)
DAV:   1    -0.419250184936E+01   -0.71899E-03   -0.63374E-02197512   0.282E-01    0.108E-01
DAV:   2    -0.419217984049E+01    0.32201E-03   -0.50972E-05139160   0.112E-02    0.664E-02
DAV:   3    -0.419192876010E+01    0.25108E-03   -0.10381E-04210308   0.107E-02    0.250E-03
DAV:   4    -0.419192519908E+01    0.35610E-05   -0.28640E-08138012   0.304E-04    0.686E-04
DAV:   5    -0.419192376808E+01    0.14310E-05   -0.32887E-09134652   0.793E-05    0.437E-05
DAV:   6    -0.419192364867E+01    0.11942E-06   -0.43351E-11 71232   0.122E-05
   4 F= -.41919236E+01 E0= -.41919078E+01  d E =-.475180E-04
 Finite differences progress:
  Degree of freedom:   2/  7
  Displacement:        1/  2
  Total:               3/ 14
 bond charge predicted
       N       E                     dE             d eps       ncg     rms          rms(c)
DAV:   1    -0.419226379882E+01   -0.34003E-03   -0.63379E-02201544   0.296E-01    0.128E-01
DAV:   2    -0.419196925802E+01    0.29454E-03   -0.53464E-05137564   0.112E-02    0.790E-02
DAV:   3    -0.419178286314E+01    0.18639E-03   -0.11485E-04214340   0.114E-02    0.250E-03
DAV:   4    -0.419178279012E+01    0.73019E-07   -0.37695E-08136640   0.406E-04
   5 F= -.41917828E+01 E0= -.41917702E+01  d E =-.379127E-04
 Finite differences progress:
  Degree of freedom:   2/  7
  Displacement:        2/  2
  Total:               4/ 14
 bond charge predicted
       N       E                     dE             d eps       ncg     rms          rms(c)
DAV:   1    -0.419241806852E+01   -0.63521E-03   -0.60220E-02198184   0.282E-01    0.108E-01
DAV:   2    -0.419212614708E+01    0.29192E-03   -0.49854E-05138768   0.109E-02    0.664E-02
DAV:   3    -0.419192528887E+01    0.20086E-03   -0.10421E-04211372   0.107E-02    0.249E-03
DAV:   4    -0.419192414169E+01    0.11472E-05   -0.28713E-08137032   0.304E-04    0.701E-04
DAV:   5    -0.419192368068E+01    0.46101E-06   -0.35252E-09135296   0.806E-05
   6 F= -.41919237E+01 E0= -.41919078E+01  d E =-.475184E-04
 Finite differences progress:
  Degree of freedom:   3/  7
  Displacement:        1/  2
  Total:               5/ 14
 bond charge predicted
       N       E                     dE             d eps       ncg     rms          rms(c)
DAV:   1    -0.419226348947E+01   -0.33935E-03   -0.73627E-02200088   0.301E-01    0.128E-01
DAV:   2    -0.419196925856E+01    0.29423E-03   -0.56964E-05137424   0.119E-02    0.790E-02
DAV:   3    -0.419178285997E+01    0.18640E-03   -0.11476E-04209524   0.114E-02    0.250E-03
DAV:   4    -0.419178278901E+01    0.70955E-07   -0.38903E-08137452   0.415E-04
   7 F= -.41917828E+01 E0= -.41917702E+01  d E =-.379125E-04
 Finite differences progress:
  Degree of freedom:   3/  7
  Displacement:        2/  2
  Total:               6/ 14
 bond charge predicted
       N       E                     dE             d eps       ncg     rms          rms(c)
DAV:   1    -0.419325526988E+01   -0.14724E-02   -0.47111E-02716688   0.222E-01    0.102E-01
DAV:   2    -0.419300914874E+01    0.24612E-03   -0.10958E-04482328   0.116E-02    0.599E-02
DAV:   3    -0.419288178587E+01    0.12736E-03   -0.19074E-04757400   0.121E-02    0.402E-03
DAV:   4    -0.419288128479E+01    0.50108E-06   -0.42734E-07561876   0.779E-04
   8 F= -.41928813E+01 E0= -.41928919E+01  d E =0.317141E-04
 Finite differences progress:
  Degree of freedom:   4/  7
  Displacement:        1/  2
  Total:               7/ 14
 bond charge predicted
       N       E                     dE             d eps       ncg     rms          rms(c)
DAV:   1    -0.419386052267E+01   -0.97874E-03   -0.44559E-02710276   0.185E-01    0.160E-01
DAV:   2    -0.419319379834E+01    0.66672E-03   -0.34684E-04501704   0.167E-02    0.914E-02
DAV:   3    -0.419288106129E+01    0.31274E-03   -0.59151E-04739760   0.205E-02    0.415E-03
DAV:   4    -0.419288125725E+01   -0.19596E-06   -0.98195E-08492436   0.726E-04
   9 F= -.41928813E+01 E0= -.41928918E+01  d E =0.317076E-04
 Finite differences progress:
  Degree of freedom:   4/  7
  Displacement:        2/  2
  Total:               8/ 14
 bond charge predicted
       N       E                     dE             d eps       ncg     rms          rms(c)
DAV:   1    -0.419303353478E+01   -0.15247E-03   -0.40272E-02715680   0.182E-01    0.104E-01
DAV:   2    -0.419284297092E+01    0.19056E-03   -0.14764E-04505764   0.114E-02    0.626E-02
DAV:   3    -0.419285469428E+01   -0.11723E-04   -0.31737E-04749980   0.149E-02    0.645E-03
DAV:   4    -0.419288023179E+01   -0.25538E-04   -0.37527E-06567252   0.170E-03    0.237E-04
DAV:   5    -0.419288111941E+01   -0.88762E-06   -0.48214E-09414120   0.109E-04
  10 F= -.41928811E+01 E0= -.41928917E+01  d E =0.317134E-04
 Finite differences progress:
  Degree of freedom:   5/  7
  Displacement:        1/  2
  Total:               9/ 14
 bond charge predicted
       N       E                     dE             d eps       ncg     rms          rms(c)
DAV:   1    -0.419386048914E+01   -0.98026E-03   -0.47132E-02700728   0.191E-01    0.160E-01
DAV:   2    -0.419319377183E+01    0.66672E-03   -0.34736E-04512820   0.168E-02    0.914E-02
DAV:   3    -0.419288101791E+01    0.31275E-03   -0.59159E-04732788   0.205E-02    0.415E-03
DAV:   4    -0.419288121593E+01   -0.19802E-06   -0.10199E-07493836   0.737E-04
  11 F= -.41928812E+01 E0= -.41928918E+01  d E =0.317076E-04
 Finite differences progress:
  Degree of freedom:   5/  7
  Displacement:        2/  2
  Total:              10/ 14
 bond charge predicted
       N       E                     dE             d eps       ncg     rms          rms(c)
DAV:   1    -0.419340306705E+01   -0.52205E-03   -0.40209E-02698712   0.178E-01    0.105E-01
DAV:   2    -0.419307548649E+01    0.32758E-03   -0.17251E-04518616   0.119E-02    0.629E-02
DAV:   3    -0.419288526844E+01    0.19022E-03   -0.35075E-04740936   0.148E-02    0.717E-03
DAV:   4    -0.419288123676E+01    0.40317E-05   -0.42462E-06580272   0.189E-03    0.229E-04
DAV:   5    -0.419288121403E+01    0.22727E-07   -0.47138E-09416556   0.119E-04
  12 F= -.41928812E+01 E0= -.41928918E+01  d E =0.317146E-04
 Finite differences progress:
  Degree of freedom:   6/  7
  Displacement:        1/  2
  Total:              11/ 14
 bond charge predicted
       N       E                     dE             d eps       ncg     rms          rms(c)
DAV:   1    -0.419386049252E+01   -0.97926E-03   -0.42881E-02688660   0.190E-01    0.160E-01
DAV:   2    -0.419319377154E+01    0.66672E-03   -0.34730E-04504756   0.168E-02    0.914E-02
DAV:   3    -0.419288101963E+01    0.31275E-03   -0.59161E-04738612   0.205E-02    0.415E-03
DAV:   4    -0.419288121631E+01   -0.19668E-06   -0.99286E-08497112   0.728E-04
  13 F= -.41928812E+01 E0= -.41928918E+01  d E =0.317076E-04
 Finite differences progress:
  Degree of freedom:   6/  7
  Displacement:        2/  2
  Total:              12/ 14
 bond charge predicted
       N       E                     dE             d eps       ncg     rms          rms(c)
DAV:   1    -0.419278876255E+01    0.92257E-04   -0.32979E-02 57176   0.234E-01    0.705E-02
DAV:   2    -0.419291055366E+01   -0.12179E-03   -0.65034E-05 53508   0.103E-02    0.454E-02
DAV:   3    -0.419328825902E+01   -0.37771E-03   -0.18476E-04 85148   0.120E-02    0.140E-03
DAV:   4    -0.419329089238E+01   -0.26334E-05   -0.34562E-08 52304   0.411E-04    0.422E-04
DAV:   5    -0.419329201412E+01   -0.11217E-05   -0.31059E-09 54964   0.720E-05    0.232E-05
DAV:   6    -0.419329203190E+01   -0.17786E-07   -0.14192E-11 28448   0.751E-06
  14 F= -.41932920E+01 E0= -.41933118E+01  d E =0.592030E-04
 Finite differences progress:
  Degree of freedom:   7/  7
  Displacement:        1/  2
  Total:              13/ 14
 bond charge predicted
       N       E                     dE             d eps       ncg     rms          rms(c)
DAV:   1    -0.419332724878E+01   -0.35235E-04   -0.57411E-02 50232   0.368E-01    0.486E-02
DAV:   2    -0.419330897560E+01    0.18273E-04   -0.49013E-05 54012   0.146E-02    0.307E-02
DAV:   3    -0.419329201737E+01    0.16958E-04   -0.30975E-05 77784   0.513E-03    0.116E-03
DAV:   4    -0.419329202855E+01   -0.11180E-07   -0.46383E-08 57876   0.324E-04
  15 F= -.41932920E+01 E0= -.41933118E+01  d E =0.592033E-04
 Finite differences progress:
  Degree of freedom:   7/  7
  Displacement:        2/  2
  Total:              14/ 14
