unknown system                          
           1
     0.000000    1.992060    1.992060
     1.992060    0.000000    1.992060
     1.992060    1.992060    0.000000
   Al
   1
Direct configuration=     1
   0.00000000  0.00000000  0.00000000
unknown system                          
           1
     0.000000    1.992060    1.992060
     2.021941    0.000000    1.992060
     2.021941    1.992060    0.000000
   Al
   1
Direct configuration=     2
   0.00000000  0.00000000  0.00000000
unknown system                          
           1
     0.000000    1.992060    1.992060
     1.962180    0.000000    1.992060
     1.962180    1.992060    0.000000
   Al
   1
Direct configuration=     3
   0.00000000  0.00000000  0.00000000
unknown system                          
           1
     0.000000    2.021941    1.992060
     1.992060    0.000000    1.992060
     1.992060    2.021941    0.000000
   Al
   1
Direct configuration=     4
   0.00000000  0.00000000  0.00000000
unknown system                          
           1
     0.000000    1.962180    1.992060
     1.992060    0.000000    1.992060
     1.992060    1.962180    0.000000
   Al
   1
Direct configuration=     5
   0.00000000  0.00000000  0.00000000
unknown system                          
           1
     0.000000    1.992060    2.021941
     1.992060    0.000000    2.021941
     1.992060    1.992060    0.000000
   Al
   1
Direct configuration=     6
   0.00000000  0.00000000  0.00000000
unknown system                          
           1
     0.000000    1.992060    1.962180
     1.992060    0.000000    1.962180
     1.992060    1.992060    0.000000
   Al
   1
Direct configuration=     7
   0.00000000  0.00000000  0.00000000
unknown system                          
           1
     0.000000    1.992060    1.992060
     1.992060    0.029881    1.992060
     1.992060    2.021941    0.000000
   Al
   1
Direct configuration=     8
   0.00000000  0.00000000  0.00000000
unknown system                          
           1
     0.000000    1.992060    1.992060
     1.992060   -0.029881    1.992060
     1.992060    1.962180    0.000000
   Al
   1
Direct configuration=     9
   0.00000000  0.00000000  0.00000000
unknown system                          
           1
     0.000000    1.992060    2.021941
     1.992060    0.000000    1.992060
     1.992060    1.992060    0.029881
   Al
   1
Direct configuration=    10
   0.00000000  0.00000000  0.00000000
unknown system                          
           1
     0.000000    1.992060    1.962180
     1.992060    0.000000    1.992060
     1.992060    1.992060   -0.029881
   Al
   1
Direct configuration=    11
   0.00000000  0.00000000  0.00000000
unknown system                          
           1
     0.029881    1.992060    1.992060
     2.021941    0.000000    1.992060
     1.992060    1.992060    0.000000
   Al
   1
Direct configuration=    12
   0.00000000  0.00000000  0.00000000
unknown system                          
           1
    -0.029881    1.992060    1.992060
     1.962180    0.000000    1.992060
     1.992060    1.992060    0.000000
   Al
   1
Direct configuration=    13
   0.00000000  0.00000000  0.00000000
unknown system                          
           1
     0.000000    1.992060    1.992060
     1.992060    0.000000    1.992060
     1.992060    1.992060    0.000000
   Al
   1
Direct configuration=    14
  -0.00376495  0.00376495  0.00376495
unknown system                          
           1
     0.000000    1.992060    1.992060
     1.992060    0.000000    1.992060
     1.992060    1.992060    0.000000
   Al
   1
Direct configuration=    15
   0.00376495 -0.00376495 -0.00376495
