  18  18   0   0
  0.3885500E+02  0.7337511E-09  0.7337511E-09  0.1500000E-08  0.2000000E-15
  1.000000000000000E-004
  CAR 
 graphene                                
      5.63764340    -23.21762768  301     -2.41036377      1.00000000
    -23.218  0.0000E+00  0.0000E+00
    -23.121  0.0000E+00  0.0000E+00
    -23.025  0.0000E+00  0.0000E+00
    -22.929  0.0000E+00  0.0000E+00
    -22.833  0.0000E+00  0.0000E+00
    -22.737  0.0000E+00  0.0000E+00
    -22.641  0.0000E+00  0.0000E+00
    -22.544  0.0000E+00  0.0000E+00
    -22.448  0.0000E+00  0.0000E+00
    -22.352  0.0000E+00  0.0000E+00
    -22.256  0.0000E+00  0.0000E+00
    -22.160  0.2046E-14  0.1968E-15
    -22.063  0.2362E-07  0.2272E-08
    -21.967  0.2313E-03  0.2225E-04
    -21.871  0.5170E-02  0.5195E-03
    -21.775  0.2554E-01  0.2976E-02
    -21.679  0.8050E-02  0.3750E-02
    -21.582  0.1896E-01  0.5574E-02
    -21.486  0.2966E-01  0.8427E-02
    -21.390  0.1761E-01  0.1012E-01
    -21.294  0.1494E-03  0.1013E-01
    -21.198  0.1325E-01  0.1141E-01
    -21.102  0.5126E-01  0.1634E-01
    -21.005  0.5026E-02  0.1682E-01
    -20.909  0.2749E-01  0.1947E-01
    -20.813  0.2772E-02  0.1973E-01
    -20.717  0.6835E-03  0.1980E-01
    -20.621  0.2506E-01  0.2221E-01
    -20.524  0.5222E-01  0.2723E-01
    -20.428  0.2179E-01  0.2933E-01
    -20.332  0.1054E-03  0.2934E-01
    -20.236  0.1364E-01  0.3065E-01
    -20.140  0.1937E-01  0.3251E-01
    -20.044  0.2211E-03  0.3253E-01
    -19.947  0.1351E-01  0.3383E-01
    -19.851  0.5106E-01  0.3875E-01
    -19.755  0.9115E-02  0.3962E-01
    -19.659  0.5477E-01  0.4489E-01
    -19.563  0.4606E-02  0.4533E-01
    -19.466  0.9221E-06  0.4533E-01
    -19.370  0.7826E-03  0.4541E-01
    -19.274  0.2479E-01  0.4779E-01
    -19.178  0.8087E-02  0.4857E-01
    -19.082  0.2270E-01  0.5075E-01
    -18.986  0.5100E-01  0.5566E-01
    -18.889  0.2562E-01  0.5812E-01
    -18.793  0.2069E-03  0.5814E-01
    -18.697  0.2814E-01  0.6085E-01
    -18.601  0.3790E-01  0.6450E-01
    -18.505  0.3789E-03  0.6453E-01
    -18.408  0.5039E-08  0.6453E-01
    -18.312  0.6846E-05  0.6453E-01
    -18.216  0.6941E-02  0.6520E-01
    -18.120  0.3988E-01  0.6904E-01
    -18.024  0.5125E-01  0.7397E-01
    -17.927  0.1244E-01  0.7516E-01
    -17.831  0.5305E-01  0.8027E-01
    -17.735  0.2782E-02  0.8053E-01
    -17.639  0.3194E-05  0.8053E-01
    -17.543  0.7621E-02  0.8127E-01
    -17.447  0.5462E-01  0.8652E-01
    -17.350  0.4292E-02  0.8693E-01
    -17.254  0.7488E-06  0.8693E-01
    -17.158  0.1842E-05  0.8693E-01
    -17.062  0.4212E-02  0.8734E-01
    -16.966  0.4594E-01  0.9176E-01
    -16.869  0.7912E-01  0.9937E-01
    -16.773  0.3896E-02  0.9974E-01
    -16.677  0.2572E-01  0.1022E+00
    -16.581  0.4025E-01  0.1061E+00
    -16.485  0.8746E-02  0.1069E+00
    -16.389  0.2432E-01  0.1093E+00
    -16.292  0.6865E-03  0.1093E+00
    -16.196  0.3200E-07  0.1093E+00
    -16.100  0.2218E-07  0.1093E+00
    -16.004  0.5744E-03  0.1094E+00
    -15.908  0.2727E-01  0.1120E+00
    -15.811  0.6318E-01  0.1181E+00
    -15.715  0.9871E-02  0.1190E+00
    -15.619  0.2589E-01  0.1215E+00
    -15.523  0.6279E-02  0.1221E+00
    -15.427  0.5311E-05  0.1221E+00
    -15.331  0.9863E-03  0.1222E+00
    -15.234  0.2558E-01  0.1247E+00
    -15.138  0.1703E-01  0.1263E+00
    -15.042  0.3133E-01  0.1293E+00
    -14.946  0.5492E-01  0.1346E+00
    -14.850  0.1926E-01  0.1365E+00
    -14.753  0.6137E-02  0.1371E+00
    -14.657  0.1028E-04  0.1371E+00
    -14.561  0.1253E-03  0.1371E+00
    -14.465  0.2895E-01  0.1399E+00
    -14.369  0.7737E-01  0.1473E+00
    -14.272  0.2654E-01  0.1499E+00
    -14.176  0.9365E-04  0.1499E+00
    -14.080  0.1446E-02  0.1500E+00
    -13.984  0.4902E-01  0.1547E+00
    -13.888  0.1605E-01  0.1563E+00
    -13.792  0.4709E-03  0.1563E+00
    -13.695  0.2267E-01  0.1585E+00
    -13.599  0.1027E-01  0.1595E+00
    -13.503  0.2967E-01  0.1623E+00
    -13.407  0.3646E-01  0.1658E+00
    -13.311  0.1314E-01  0.1671E+00
    -13.214  0.2242E-01  0.1693E+00
    -13.118  0.8756E-02  0.1701E+00
    -13.022  0.3241E-03  0.1701E+00
    -12.926  0.1216E-03  0.1701E+00
    -12.830  0.2824E-01  0.1729E+00
    -12.734  0.3781E-01  0.1765E+00
    -12.637  0.9765E-03  0.1766E+00
    -12.541  0.4719E-01  0.1811E+00
    -12.445  0.7889E-01  0.1887E+00
    -12.349  0.6399E-02  0.1893E+00
    -12.253  0.1854E-05  0.1893E+00
    -12.156  0.2967E-06  0.1893E+00
    -12.060  0.1969E-02  0.1895E+00
    -11.964  0.3924E-01  0.1933E+00
    -11.868  0.6211E-01  0.1993E+00
    -11.772  0.2962E-01  0.2021E+00
    -11.676  0.1386E-03  0.2021E+00
    -11.579  0.7733E-09  0.2021E+00
    -11.483  0.1556E-06  0.2021E+00
    -11.387  0.1456E-02  0.2023E+00
    -11.291  0.3416E-01  0.2056E+00
    -11.195  0.6568E-01  0.2119E+00
    -11.098  0.6552E-01  0.2182E+00
    -11.002  0.3260E-01  0.2213E+00
    -10.906  0.2163E-03  0.2213E+00
    -10.810  0.1424E-01  0.2227E+00
    -10.714  0.5050E-01  0.2276E+00
    -10.617  0.1790E-02  0.2277E+00
    -10.521  0.1110E-06  0.2277E+00
    -10.425  0.7756E-06  0.2277E+00
    -10.329  0.4530E-02  0.2282E+00
    -10.233  0.7501E-01  0.2354E+00
    -10.137  0.3948E-01  0.2392E+00
    -10.040  0.8104E-01  0.2470E+00
     -9.944  0.3052E-01  0.2499E+00
     -9.848  0.7341E-01  0.2570E+00
     -9.752  0.3718E-01  0.2605E+00
     -9.656  0.2781E-01  0.2632E+00
     -9.559  0.2539E-02  0.2635E+00
     -9.463  0.1522E-01  0.2649E+00
     -9.367  0.1021E+00  0.2748E+00
     -9.271  0.8303E-01  0.2827E+00
     -9.175  0.3641E-01  0.2862E+00
     -9.079  0.7232E-01  0.2932E+00
     -8.982  0.2357E-01  0.2955E+00
     -8.886  0.2760E-01  0.2981E+00
     -8.790  0.1006E+00  0.3078E+00
     -8.694  0.9374E-01  0.3168E+00
     -8.598  0.6267E-01  0.3228E+00
     -8.501  0.6738E-01  0.3293E+00
     -8.405  0.1402E-01  0.3307E+00
     -8.309  0.2922E-01  0.3335E+00
     -8.213  0.8099E-01  0.3413E+00
     -8.117  0.2269E-01  0.3435E+00
     -8.021  0.1074E-03  0.3435E+00
     -7.924  0.1449E-02  0.3436E+00
     -7.828  0.8755E-01  0.3520E+00
     -7.732  0.7741E-01  0.3595E+00
     -7.636  0.7483E-01  0.3667E+00
     -7.540  0.8989E-01  0.3753E+00
     -7.443  0.1575E-02  0.3755E+00
     -7.347  0.6062E-07  0.3755E+00
     -7.251  0.7875E-04  0.3755E+00
     -7.155  0.1518E-01  0.3769E+00
     -7.059  0.1832E-01  0.3787E+00
     -6.962  0.4049E-01  0.3826E+00
     -6.866  0.8732E-01  0.3910E+00
     -6.770  0.8638E-01  0.3993E+00
     -6.674  0.1843E-01  0.4011E+00
     -6.578  0.1539E-01  0.4026E+00
     -6.482  0.4771E-01  0.4071E+00
     -6.385  0.3634E-01  0.4106E+00
     -6.289  0.4348E-02  0.4111E+00
     -6.193  0.2828E-01  0.4138E+00
     -6.097  0.2778E-01  0.4164E+00
     -6.001  0.1435E-01  0.4178E+00
     -5.904  0.2847E-01  0.4206E+00
     -5.808  0.4090E-01  0.4245E+00
     -5.712  0.5827E-01  0.4301E+00
     -5.616  0.6257E-01  0.4361E+00
     -5.520  0.3474E-01  0.4395E+00
     -5.424  0.8309E-02  0.4403E+00
     -5.327  0.3541E-01  0.4437E+00
     -5.231  0.3369E-01  0.4469E+00
     -5.135  0.2339E-03  0.4469E+00
     -5.039  0.2139E-02  0.4471E+00
     -4.943  0.2731E-01  0.4498E+00
     -4.846  0.3824E-02  0.4501E+00
     -4.750  0.5207E-02  0.4506E+00
     -4.654  0.4596E-01  0.4551E+00
     -4.558  0.1366E+00  0.4682E+00
     -4.462  0.1188E-01  0.4693E+00
     -4.366  0.2770E-05  0.4693E+00
     -4.269  0.6191E-12  0.4693E+00
     -4.173  0.5084E-12  0.4693E+00
     -4.077  0.1453E-05  0.4693E+00
     -3.981  0.3808E-02  0.4697E+00
     -3.885  0.2731E-01  0.4723E+00
     -3.788  0.2147E-02  0.4725E+00
     -3.692  0.3973E-06  0.4725E+00
     -3.596  0.8161E-03  0.4726E+00
     -3.500  0.4453E-01  0.4769E+00
     -3.404  0.2115E-01  0.4789E+00
     -3.307  0.4696E-04  0.4789E+00
     -3.211  0.1119E-09  0.4789E+00
     -3.115  0.0000E+00  0.4789E+00
     -3.019  0.0000E+00  0.4789E+00
     -2.923  0.0000E+00  0.4789E+00
     -2.827  0.0000E+00  0.4789E+00
     -2.730  0.0000E+00  0.4789E+00
     -2.634  0.2700E-11  0.4789E+00
     -2.538  0.3388E-05  0.4789E+00
     -2.442  0.4138E-02  0.4793E+00
     -2.346  0.1729E-01  0.4810E+00
     -2.249  0.7450E-03  0.4811E+00
     -2.153  0.5923E-07  0.4811E+00
     -2.057  0.3945E-14  0.4811E+00
     -1.961  0.0000E+00  0.4811E+00
     -1.865  0.0000E+00  0.4811E+00
     -1.769  0.0000E+00  0.4811E+00
     -1.672  0.0000E+00  0.4811E+00
     -1.576  0.6889E-11  0.4811E+00
     -1.480  0.9230E-05  0.4811E+00
     -1.384  0.1197E-01  0.4822E+00
     -1.288  0.5219E-01  0.4872E+00
     -1.191  0.2855E-02  0.4875E+00
     -1.095  0.2304E-01  0.4897E+00
     -0.999  0.9722E-02  0.4907E+00
     -0.903  0.4531E-04  0.4907E+00
     -0.807  0.1108E-01  0.4917E+00
     -0.711  0.2732E-01  0.4944E+00
     -0.614  0.5711E-01  0.4999E+00
     -0.518  0.3308E-01  0.5030E+00
     -0.422  0.6198E-02  0.5036E+00
     -0.326  0.5030E-01  0.5085E+00
     -0.230  0.1959E-01  0.5104E+00
     -0.133  0.2674E-01  0.5129E+00
     -0.037  0.2210E-01  0.5151E+00
      0.059  0.4501E-01  0.5194E+00
      0.155  0.8653E-03  0.5195E+00
      0.251  0.2513E-07  0.5195E+00
      0.348  0.1522E-14  0.5195E+00
      0.444  0.3422E-07  0.5195E+00
      0.540  0.1009E-02  0.5196E+00
      0.636  0.4627E-01  0.5240E+00
      0.732  0.2574E-01  0.5265E+00
      0.828  0.2578E-01  0.5290E+00
      0.925  0.4191E-02  0.5294E+00
      1.021  0.1212E-01  0.5305E+00
      1.117  0.8219E-01  0.5384E+00
      1.213  0.7862E-02  0.5392E+00
      1.309  0.4244E-02  0.5396E+00
      1.406  0.2735E-01  0.5422E+00
      1.502  0.2181E-01  0.5443E+00
      1.598  0.5165E-01  0.5493E+00
      1.694  0.2791E-01  0.5520E+00
      1.790  0.1205E-03  0.5520E+00
      1.886  0.9105E-02  0.5529E+00
      1.983  0.5680E-01  0.5583E+00
      2.079  0.8984E-02  0.5592E+00
      2.175  0.3245E-01  0.5623E+00
      2.271  0.5237E-01  0.5674E+00
      2.367  0.4723E-01  0.5719E+00
      2.464  0.3007E-01  0.5748E+00
      2.560  0.5258E-01  0.5799E+00
      2.656  0.1002E+00  0.5895E+00
      2.752  0.3114E-01  0.5925E+00
      2.848  0.5363E-01  0.5976E+00
      2.944  0.2804E-01  0.6003E+00
      3.041  0.4296E-01  0.6045E+00
      3.137  0.3039E-01  0.6074E+00
      3.233  0.2576E-01  0.6099E+00
      3.329  0.3792E-01  0.6135E+00
      3.425  0.4037E-01  0.6174E+00
      3.522  0.6727E-01  0.6239E+00
      3.618  0.3514E-01  0.6273E+00
      3.714  0.2613E-01  0.6298E+00
      3.810  0.2020E-01  0.6317E+00
      3.906  0.4428E-01  0.6360E+00
      4.003  0.3054E-02  0.6363E+00
      4.099  0.5392E-04  0.6363E+00
      4.195  0.1358E-01  0.6376E+00
      4.291  0.2032E-01  0.6395E+00
      4.387  0.4630E-02  0.6400E+00
      4.483  0.2312E-03  0.6400E+00
      4.580  0.2362E-07  0.6400E+00
      4.676  0.2046E-14  0.6400E+00
      4.772  0.0000E+00  0.6400E+00
      4.868  0.0000E+00  0.6400E+00
      4.964  0.0000E+00  0.6400E+00
      5.061  0.0000E+00  0.6400E+00
      5.157  0.0000E+00  0.6400E+00
      5.253  0.0000E+00  0.6400E+00
      5.349  0.0000E+00  0.6400E+00
      5.445  0.0000E+00  0.6400E+00
      5.541  0.0000E+00  0.6400E+00
      5.638  0.0000E+00  0.6400E+00
