       N       E                     dE             d eps       ncg     rms          rms(c)
DAV:   1     0.710822117058E+03    0.71082E+03   -0.33556E+04   480   0.152E+03
DAV:   2    -0.936553604394E+02   -0.80448E+03   -0.79698E+03   888   0.279E+02
DAV:   3    -0.194153698460E+03   -0.10050E+03   -0.10040E+03   720   0.116E+02
DAV:   4    -0.195726372591E+03   -0.15727E+01   -0.15708E+01   696   0.187E+01
DAV:   5    -0.195775132827E+03   -0.48760E-01   -0.48714E-01   648   0.284E+00    0.176E+01
DAV:   6    -0.185555971077E+03    0.10219E+02   -0.10406E+01   648   0.116E+01    0.911E+00
DAV:   7    -0.181872762903E+03    0.36832E+01   -0.11440E+01   720   0.119E+01    0.160E+00
DAV:   8    -0.181804725108E+03    0.68038E-01   -0.21328E-01   672   0.189E+00    0.300E-01
DAV:   9    -0.181784693575E+03    0.20032E-01   -0.29983E-02   648   0.563E-01    0.212E-01
DAV:  10    -0.181774554753E+03    0.10139E-01   -0.16784E-02   528   0.339E-01    0.851E-02
DAV:  11    -0.181775165061E+03   -0.61031E-03   -0.43631E-03   480   0.171E-01    0.627E-02
DAV:  12    -0.181783600312E+03   -0.84353E-02   -0.39981E-03   552   0.198E-01    0.437E-02
DAV:  13    -0.181787072566E+03   -0.34723E-02   -0.92176E-04   504   0.808E-02    0.122E-02
DAV:  14    -0.181788031977E+03   -0.95941E-03   -0.15811E-04   552   0.379E-02    0.140E-02
DAV:  15    -0.181788525232E+03   -0.49325E-03   -0.12084E-04   480   0.314E-02    0.378E-03
DAV:  16    -0.181788596956E+03   -0.71725E-04   -0.51763E-06   360   0.814E-03    0.142E-03
DAV:  17    -0.181788610083E+03   -0.13127E-04   -0.55497E-07   360   0.273E-03    0.273E-04
DAV:  18    -0.181788612826E+03   -0.27426E-05   -0.99511E-08   408   0.130E-03
   1 F= -.18178861E+03 E0= -.18178636E+03  d E =-.181789E+03
