graphene                                
           1
     7.337511    0.000000    0.000000
    -3.668755    6.354471    0.000000
     0.000000    0.000000   15.000000
   C 
  18
Direct configuration=     1
   0.00000000  0.00000000  0.25000000
   0.33333334  0.00000000  0.25000000
   0.66666669  0.00000000  0.25000000
   0.00000000  0.33333334  0.25000000
   0.33333334  0.33333334  0.25000000
   0.66666669  0.33333334  0.25000000
   0.00000000  0.66666669  0.25000000
   0.33333334  0.66666669  0.25000000
   0.66666669  0.66666669  0.25000000
   0.11111111  0.22222223  0.25000000
   0.44444446  0.22222223  0.25000000
   0.77777780  0.22222223  0.25000000
   0.11111111  0.55555557  0.25000000
   0.44444446  0.55555557  0.25000000
   0.77777780  0.55555557  0.25000000
   0.11111111  0.88888892  0.25000000
   0.44444446  0.88888892  0.25000000
   0.77777780  0.88888892  0.25000000
