   4   4   0   0
  0.1580990E+02  0.3984095E-09  0.3984095E-09  0.3984095E-09  0.5000000E-15
  1.000000000000000E-004
  CAR 
 unknown system                          
     21.92782605     -5.15606222  301      8.21637406      1.00000000
     -5.156  0.0000E+00  0.0000E+00
     -5.066  0.0000E+00  0.0000E+00
     -4.976  0.0000E+00  0.0000E+00
     -4.885  0.0000E+00  0.0000E+00
     -4.795 -0.3400E-32 -0.3070E-33
     -4.705 -0.4439E-29 -0.4010E-30
     -4.614 -0.3749E-26 -0.3388E-27
     -4.524 -0.2107E-23 -0.1906E-24
     -4.434 -0.7886E-21 -0.7138E-22
     -4.344 -0.1967E-18 -0.1783E-19
     -4.253 -0.3171E-16 -0.2881E-17
     -4.163 -0.3510E-14 -0.3198E-15
     -4.073 -0.2599E-12 -0.2378E-13
     -3.982 -0.1289E-10 -0.1187E-11
     -3.892 -0.4287E-09 -0.3989E-10
     -3.802 -0.9568E-08 -0.9037E-09
     -3.712 -0.1430E-06 -0.1381E-07
     -3.621 -0.1421E-05 -0.1421E-06
     -3.531 -0.9225E-05 -0.9749E-06
     -3.441 -0.3749E-04 -0.4360E-05
     -3.350 -0.8334E-04 -0.1188E-04
     -3.260 -0.3234E-04 -0.1480E-04
     -3.170  0.3646E-03  0.1811E-04
     -3.080  0.1208E-02  0.1272E-03
     -2.989  0.2284E-02  0.3334E-03
     -2.899  0.3383E-02  0.6388E-03
     -2.809  0.4216E-02  0.1019E-02
     -2.719  0.4509E-02  0.1426E-02
     -2.628  0.4869E-02  0.1866E-02
     -2.538  0.5766E-02  0.2387E-02
     -2.448  0.6453E-02  0.2969E-02
     -2.357  0.6625E-02  0.3567E-02
     -2.267  0.6594E-02  0.4162E-02
     -2.177  0.6480E-02  0.4747E-02
     -2.087  0.7086E-02  0.5387E-02
     -1.996  0.8574E-02  0.6161E-02
     -1.906  0.9533E-02  0.7022E-02
     -1.816  0.9083E-02  0.7842E-02
     -1.725  0.7637E-02  0.8531E-02
     -1.635  0.7024E-02  0.9166E-02
     -1.545  0.8773E-02  0.9958E-02
     -1.455  0.1114E-01  0.1096E-01
     -1.364  0.1187E-01  0.1203E-01
     -1.274  0.1116E-01  0.1304E-01
     -1.184  0.9588E-02  0.1391E-01
     -1.093  0.8686E-02  0.1469E-01
     -1.003  0.1007E-01  0.1560E-01
     -0.913  0.1194E-01  0.1668E-01
     -0.823  0.1203E-01  0.1776E-01
     -0.732  0.1112E-01  0.1877E-01
     -0.642  0.1123E-01  0.1978E-01
     -0.552  0.1300E-01  0.2096E-01
     -0.462  0.1441E-01  0.2226E-01
     -0.371  0.1391E-01  0.2351E-01
     -0.281  0.1246E-01  0.2464E-01
     -0.191  0.1054E-01  0.2559E-01
     -0.100  0.9440E-02  0.2644E-01
     -0.010  0.1156E-01  0.2749E-01
      0.080  0.1521E-01  0.2886E-01
      0.170  0.1721E-01  0.3041E-01
      0.261  0.1728E-01  0.3197E-01
      0.351  0.1563E-01  0.3338E-01
      0.441  0.1325E-01  0.3458E-01
      0.532  0.1214E-01  0.3568E-01
      0.622  0.1279E-01  0.3683E-01
      0.712  0.1417E-01  0.3811E-01
      0.802  0.1461E-01  0.3943E-01
      0.893  0.1432E-01  0.4072E-01
      0.983  0.1588E-01  0.4215E-01
      1.073  0.1852E-01  0.4383E-01
      1.164  0.1904E-01  0.4555E-01
      1.254  0.1685E-01  0.4707E-01
      1.344  0.1373E-01  0.4831E-01
      1.434  0.1344E-01  0.4952E-01
      1.525  0.1716E-01  0.5107E-01
      1.615  0.2017E-01  0.5289E-01
      1.705  0.1897E-01  0.5460E-01
      1.795  0.1528E-01  0.5598E-01
      1.886  0.1309E-01  0.5716E-01
      1.976  0.1482E-01  0.5850E-01
      2.066  0.1808E-01  0.6013E-01
      2.157  0.1937E-01  0.6188E-01
      2.247  0.1873E-01  0.6357E-01
      2.337  0.1840E-01  0.6524E-01
      2.427  0.2091E-01  0.6712E-01
      2.518  0.2424E-01  0.6931E-01
      2.608  0.2251E-01  0.7134E-01
      2.698  0.1675E-01  0.7286E-01
      2.789  0.1276E-01  0.7401E-01
      2.879  0.1214E-01  0.7510E-01
      2.969  0.1504E-01  0.7646E-01
      3.059  0.2057E-01  0.7832E-01
      3.150  0.2477E-01  0.8056E-01
      3.240  0.2446E-01  0.8276E-01
      3.330  0.2122E-01  0.8468E-01
      3.421  0.2002E-01  0.8649E-01
      3.511  0.2172E-01  0.8845E-01
      3.601  0.2269E-01  0.9050E-01
      3.691  0.2131E-01  0.9242E-01
      3.782  0.1871E-01  0.9411E-01
      3.872  0.1735E-01  0.9568E-01
      3.962  0.1864E-01  0.9736E-01
      4.052  0.2078E-01  0.9923E-01
      4.143  0.2260E-01  0.1013E+00
      4.233  0.2388E-01  0.1034E+00
      4.323  0.2325E-01  0.1055E+00
      4.414  0.2053E-01  0.1074E+00
      4.504  0.1871E-01  0.1091E+00
      4.594  0.2107E-01  0.1110E+00
      4.684  0.2461E-01  0.1132E+00
      4.775  0.2421E-01  0.1154E+00
      4.865  0.2374E-01  0.1175E+00
      4.955  0.2655E-01  0.1199E+00
      5.046  0.2653E-01  0.1223E+00
      5.136  0.2159E-01  0.1243E+00
      5.226  0.1895E-01  0.1260E+00
      5.316  0.2331E-01  0.1281E+00
      5.407  0.2949E-01  0.1307E+00
      5.497  0.2964E-01  0.1334E+00
      5.587  0.2411E-01  0.1356E+00
      5.677  0.1982E-01  0.1374E+00
      5.768  0.2047E-01  0.1392E+00
      5.858  0.2373E-01  0.1414E+00
      5.948  0.2570E-01  0.1437E+00
      6.039  0.2474E-01  0.1459E+00
      6.129  0.2255E-01  0.1480E+00
      6.219  0.2235E-01  0.1500E+00
      6.309  0.2538E-01  0.1523E+00
      6.400  0.2850E-01  0.1548E+00
      6.490  0.2605E-01  0.1572E+00
      6.580  0.1889E-01  0.1589E+00
      6.671  0.1570E-01  0.1603E+00
      6.761  0.2022E-01  0.1621E+00
      6.851  0.2615E-01  0.1645E+00
      6.941  0.2764E-01  0.1670E+00
      7.032  0.2645E-01  0.1694E+00
      7.122  0.2613E-01  0.1717E+00
      7.212  0.2570E-01  0.1741E+00
      7.303  0.2412E-01  0.1762E+00
      7.393  0.2379E-01  0.1784E+00
      7.483  0.2596E-01  0.1807E+00
      7.573  0.2731E-01  0.1832E+00
      7.664  0.2365E-01  0.1853E+00
      7.754  0.1813E-01  0.1870E+00
      7.844  0.1884E-01  0.1887E+00
      7.934  0.2542E-01  0.1910E+00
      8.025  0.3041E-01  0.1937E+00
      8.115  0.3214E-01  0.1966E+00
      8.205  0.3335E-01  0.1996E+00
      8.296  0.3245E-01  0.2026E+00
      8.386  0.2732E-01  0.2050E+00
      8.476  0.2193E-01  0.2070E+00
      8.566  0.2027E-01  0.2088E+00
      8.657  0.2203E-01  0.2108E+00
      8.747  0.2578E-01  0.2132E+00
      8.837  0.2755E-01  0.2156E+00
      8.928  0.2413E-01  0.2178E+00
      9.018  0.2125E-01  0.2197E+00
      9.108  0.2579E-01  0.2221E+00
      9.198  0.3373E-01  0.2251E+00
      9.289  0.3668E-01  0.2284E+00
      9.379  0.3401E-01  0.2315E+00
      9.469  0.2984E-01  0.2342E+00
      9.560  0.2613E-01  0.2365E+00
      9.650  0.2450E-01  0.2388E+00
      9.740  0.2505E-01  0.2410E+00
      9.830  0.2538E-01  0.2433E+00
      9.921  0.2600E-01  0.2457E+00
     10.011  0.2846E-01  0.2482E+00
     10.101  0.3112E-01  0.2510E+00
     10.191  0.3229E-01  0.2539E+00
     10.282  0.3235E-01  0.2569E+00
     10.372  0.3122E-01  0.2597E+00
     10.462  0.2696E-01  0.2621E+00
     10.553  0.2175E-01  0.2641E+00
     10.643  0.2267E-01  0.2661E+00
     10.733  0.2925E-01  0.2688E+00
     10.823  0.3275E-01  0.2717E+00
     10.914  0.3051E-01  0.2745E+00
     11.004  0.2789E-01  0.2770E+00
     11.094  0.2922E-01  0.2796E+00
     11.185  0.3366E-01  0.2827E+00
     11.275  0.3626E-01  0.2859E+00
     11.365  0.3357E-01  0.2890E+00
     11.455  0.2978E-01  0.2917E+00
     11.546  0.3042E-01  0.2944E+00
     11.636  0.3300E-01  0.2974E+00
     11.726  0.3264E-01  0.3003E+00
     11.817  0.3023E-01  0.3031E+00
     11.907  0.2875E-01  0.3057E+00
     11.997  0.2941E-01  0.3083E+00
     12.087  0.3069E-01  0.3111E+00
     12.178  0.2975E-01  0.3138E+00
     12.268  0.2942E-01  0.3164E+00
     12.358  0.3325E-01  0.3194E+00
     12.448  0.3565E-01  0.3227E+00
     12.539  0.3159E-01  0.3255E+00
     12.629  0.2589E-01  0.3278E+00
     12.719  0.2521E-01  0.3301E+00
     12.810  0.3078E-01  0.3329E+00
     12.900  0.3978E-01  0.3365E+00
     12.990  0.4650E-01  0.3407E+00
     13.080  0.4476E-01  0.3447E+00
     13.171  0.3589E-01  0.3480E+00
     13.261  0.2793E-01  0.3505E+00
     13.351  0.2506E-01  0.3528E+00
     13.442  0.2730E-01  0.3552E+00
     13.532  0.3339E-01  0.3582E+00
     13.622  0.3802E-01  0.3617E+00
     13.712  0.3784E-01  0.3651E+00
     13.803  0.3766E-01  0.3685E+00
     13.893  0.4036E-01  0.3721E+00
     13.983  0.4114E-01  0.3758E+00
     14.073  0.3767E-01  0.3792E+00
     14.164  0.3354E-01  0.3823E+00
     14.254  0.3306E-01  0.3853E+00
     14.344  0.3848E-01  0.3887E+00
     14.435  0.4555E-01  0.3928E+00
     14.525  0.4539E-01  0.3969E+00
     14.615  0.3618E-01  0.4002E+00
     14.705  0.2562E-01  0.4025E+00
     14.796  0.2183E-01  0.4045E+00
     14.886  0.2636E-01  0.4069E+00
     14.976  0.3571E-01  0.4101E+00
     15.067  0.4537E-01  0.4142E+00
     15.157  0.4999E-01  0.4187E+00
     15.247  0.4675E-01  0.4229E+00
     15.337  0.3975E-01  0.4265E+00
     15.428  0.3509E-01  0.4297E+00
     15.518  0.3288E-01  0.4326E+00
     15.608  0.3039E-01  0.4354E+00
     15.699  0.3046E-01  0.4381E+00
     15.789  0.3463E-01  0.4413E+00
     15.879  0.3630E-01  0.4445E+00
     15.969  0.3225E-01  0.4475E+00
     16.060  0.3033E-01  0.4502E+00
     16.150  0.3551E-01  0.4534E+00
     16.240  0.3887E-01  0.4569E+00
     16.330  0.3328E-01  0.4599E+00
     16.421  0.2578E-01  0.4622E+00
     16.511  0.2521E-01  0.4645E+00
     16.601  0.3130E-01  0.4673E+00
     16.692  0.3673E-01  0.4707E+00
     16.782  0.3677E-01  0.4740E+00
     16.872  0.3526E-01  0.4772E+00
     16.962  0.3727E-01  0.4805E+00
     17.053  0.4037E-01  0.4842E+00
     17.143  0.3819E-01  0.4876E+00
     17.233  0.3118E-01  0.4904E+00
     17.324  0.2632E-01  0.4928E+00
     17.414  0.2677E-01  0.4952E+00
     17.504  0.2906E-01  0.4978E+00
     17.594  0.2873E-01  0.5004E+00
     17.685  0.2522E-01  0.5027E+00
     17.775  0.2286E-01  0.5048E+00
     17.865  0.2596E-01  0.5071E+00
     17.956  0.3267E-01  0.5101E+00
     18.046  0.3587E-01  0.5133E+00
     18.136  0.2980E-01  0.5160E+00
     18.226  0.1842E-01  0.5177E+00
     18.317  0.1263E-01  0.5188E+00
     18.407  0.1495E-01  0.5202E+00
     18.497  0.1641E-01  0.5216E+00
     18.587  0.1245E-01  0.5228E+00
     18.678  0.9377E-02  0.5236E+00
     18.768  0.1182E-01  0.5247E+00
     18.858  0.1518E-01  0.5260E+00
     18.949  0.1394E-01  0.5273E+00
     19.039  0.1018E-01  0.5282E+00
     19.129  0.9501E-02  0.5291E+00
     19.219  0.1241E-01  0.5302E+00
     19.310  0.1411E-01  0.5315E+00
     19.400  0.1134E-01  0.5325E+00
     19.490  0.6100E-02  0.5330E+00
     19.581  0.1925E-02  0.5332E+00
     19.671  0.4503E-04  0.5332E+00
     19.761 -0.1372E-03  0.5332E+00
     19.851  0.3186E-03  0.5332E+00
     19.942  0.5673E-03  0.5333E+00
     20.032  0.3869E-03  0.5333E+00
     20.122  0.1014E-03  0.5333E+00
     20.213 -0.2280E-04  0.5333E+00
     20.303 -0.2506E-04  0.5333E+00
     20.393 -0.8202E-05  0.5333E+00
     20.483 -0.1472E-05  0.5333E+00
     20.574 -0.1619E-06  0.5333E+00
     20.664 -0.1137E-07  0.5333E+00
     20.754 -0.5202E-09  0.5333E+00
     20.844 -0.1568E-10  0.5333E+00
     20.935 -0.3133E-12  0.5333E+00
     21.025 -0.4167E-14  0.5333E+00
     21.115 -0.3691E-16  0.5333E+00
     21.206 -0.1898E-18  0.5333E+00
     21.296  0.0000E+00  0.5333E+00
     21.386  0.0000E+00  0.5333E+00
     21.476  0.0000E+00  0.5333E+00
     21.567  0.0000E+00  0.5333E+00
     21.657  0.0000E+00  0.5333E+00
     21.747  0.0000E+00  0.5333E+00
     21.838  0.0000E+00  0.5333E+00
     21.928  0.0000E+00  0.5333E+00
