    4    4   60    1
  0.1580990E+02  0.3984095E-09  0.3984095E-09  0.3984095E-09  0.5000000E-15
  1.000000000000000E-004
  CAR 
 unknown system                          
     12     84     16
 
  0.0000000E+00  0.0000000E+00  0.0000000E+00  0.5787037E-03
    1       -3.156062   1.000000
    2        5.240112   1.000000
    3        5.240112   1.000000
    4        5.240112   1.000000
    5        6.619406   1.000000
    6        6.619406   1.000000
    7        6.619406   1.000000
    8       13.546165   0.000000
    9       13.546165   0.000000
   10       13.546165   0.000000
   11       13.976194   0.000000
   12       13.976194   0.000000
   13       13.976194   0.000000
   14       13.976194   0.000000
   15       13.976194   0.000000
   16       13.976194   0.000000
 
  0.8333333E-01  0.0000000E+00  0.0000000E+00  0.3472222E-02
    1       -3.091479   1.000000
    2        4.360219   1.000000
    3        5.298816   1.000000
    4        5.298816   1.000000
    5        6.681395   1.000000
    6        6.681395   1.000000
    7        7.609911   1.000078
    8       12.378951  -0.000000
    9       12.378951  -0.000000
   10       13.540520   0.000000
   11       13.540520   0.000000
   12       13.609908   0.000000
   13       14.030295   0.000000
   14       14.030295   0.000000
   15       15.262415   0.000000
   16       15.262415   0.000000
 
  0.1666667E+00  0.0000000E+00  0.0000000E+00  0.3472222E-02
    1       -2.897896   1.000000
    2        3.131230   1.000000
    3        5.474972   1.000000
    4        5.474972   1.000000
    5        6.866285   1.000000
    6        6.866285   1.000000
    7        9.170661  -0.000000
    8       11.140543  -0.000000
    9       11.140543  -0.000000
   10       12.634376  -0.000000
   11       12.634376  -0.000000
   12       13.801006   0.000000
   13       14.192640   0.000000
   14       14.192640   0.000000
   15       16.857291   0.000000
   16       16.857291   0.000000
 
  0.2500000E+00  0.0000000E+00  0.0000000E+00  0.3472222E-02
    1       -2.575872   1.000000
    2        1.970035   1.000000
    3        5.768723   1.000000
    4        5.768723   1.000000
    5        7.170061   1.000000
    6        7.170061   1.000000
    7       10.016718  -0.000000
    8       10.016718  -0.000000
    9       10.884190  -0.000000
   10       11.645033  -0.000000
   11       11.645033  -0.000000
   12       14.118998   0.000000
   13       14.463341   0.000000
   14       14.463341   0.000000
   15       18.127484   0.000000
   16       18.351837   0.000000
 
  0.3333333E+00  0.0000000E+00  0.0000000E+00  0.3472222E-02
    1       -2.126376   1.000000
    2        0.913670   1.000000
    3        6.180318   1.000000
    4        6.180318   1.000000
    5        7.581885   1.000034
    6        7.581885   1.000034
    7        9.011437  -0.000000
    8        9.011437  -0.000000
    9       10.707642  -0.000000
   10       10.707642  -0.000000
   11       12.712303  -0.000000
   12       14.563095   0.000000
   13       14.842542   0.000000
   14       14.842542   0.000000
   15       17.440040   0.000000
   16       17.441223   0.000000
 
  0.4166667E+00  0.0000000E+00  0.0000000E+00  0.3472222E-02
    1       -1.550673   1.000000
    2       -0.028049   1.000000
    3        6.710056   1.000000
    4        6.710056   1.000000
    5        8.062463   0.981843
    6        8.062463   0.981843
    7        8.125319   0.844554
    8        8.125319   0.844554
    9        9.902065  -0.000000
   10        9.902065  -0.000000
   11       14.643049   0.000000
   12       15.131866   0.000000
   13       15.330315   0.000000
   14       15.330315   0.000000
   15       16.630353   0.000000
   16       16.631757   0.000000
 
  0.5000000E+00  0.0000000E+00  0.0000000E+00  0.1736111E-02
    1       -0.850473   1.000000
    2       -0.850473   1.000000
    3        7.358280   1.000000
    4        7.358280   1.000000
    5        7.358280   1.000000
    6        7.358280   1.000000
    7        8.374727   0.012090
    8        8.374727   0.012090
    9        9.480145  -0.000000
   10        9.480145  -0.000000
   11       15.822877   0.000000
   12       15.822877   0.000000
   13       15.926502   0.000000
   14       15.926502   0.000000
   15       15.926502   0.000000
   16       15.926502   0.000000
 
  0.8333333E-01  0.8333333E-01  0.0000000E+00  0.6944444E-02
    1       -3.026914   1.000000
    2        4.420608   1.000000
    3        4.420608   1.000000
    4        5.357528   1.000000
    5        6.742921   1.000000
    6        7.669875   1.000385
    7        7.669875   1.000385
    8       11.527896  -0.000000
    9       12.438665  -0.000000
   10       12.438665  -0.000000
   11       13.596279   0.000000
   12       13.596279   0.000000
   13       14.085343   0.000000
   14       15.193426   0.000000
   15       15.320472   0.000000
   16       15.320472   0.000000
 
  0.1666667E+00  0.8333333E-01  0.0000000E+00  0.1388889E-01
    1       -2.833435   1.000000
    2        3.192631   1.000000
    3        4.601636   1.000000
    4        5.533705   1.000000
    5        6.925798   1.000000
    6        7.848600   1.012982
    7        9.228373  -0.000000
    8       10.355248  -0.000000
    9       11.199919  -0.000000
   10       12.617674  -0.000000
   11       12.693219  -0.000000
   12       13.474944  -0.000000
   13       13.763652   0.000000
   14       15.494640   0.000000
   15       16.364739   0.000000
   16       16.915412   0.000000
 
  0.2500000E+00  0.8333333E-01  0.0000000E+00  0.1388889E-01
    1       -2.511575   1.000000
    2        2.032126   1.000000
    3        4.902847   1.000000
    4        5.827499   1.000000
    5        7.222090   1.000000
    6        8.141362   0.794006
    7        9.258997  -0.000000
    8       10.075966  -0.000000
    9       10.938164  -0.000000
   10       11.708740  -0.000000
   11       12.505765  -0.000000
   12       12.915615  -0.000000
   13       14.043266   0.000000
   14       15.784935   0.000000
   15       17.132206   0.000000
   16       17.940673   0.000000
 
  0.3333333E+00  0.8333333E-01  0.0000000E+00  0.1388889E-01
    1       -2.062288   1.000000
    2        0.976300   1.000000
    3        5.323347   1.000000
    4        6.239149   1.000000
    5        7.575176   1.000028
    6        8.325622   0.105571
    7        8.531842  -0.024115
    8        9.070586  -0.000000
    9       10.784612  -0.000000
   10       11.565349  -0.000000
   11       12.756494  -0.000000
   12       13.331847  -0.000000
   13       14.438823   0.000000
   14       16.152519   0.000000
   15       16.191197   0.000000
   16       17.027460   0.000000
 
  0.4166667E+00  0.8333333E-01  0.0000000E+00  0.1388889E-01
    1       -1.486866   1.000000
    2        0.035038   1.000000
    3        5.861348   1.000000
    4        6.768956   1.000000
    5        7.249269   1.000000
    6        8.184374   0.633501
    7        8.284751   0.228566
    8        8.926737  -0.000003
    9       10.056768  -0.000000
   10       10.724512  -0.000000
   11       13.865404   0.000000
   12       14.599448   0.000000
   13       15.021183   0.000000
   14       15.278315   0.000000
   15       16.212975   0.000000
   16       16.712786   0.000000
 
  0.5000000E+00  0.8333333E-01  0.0000000E+00  0.6944444E-02
    1       -0.787001   1.000000
    2       -0.787001   1.000000
    3        6.512097   1.000000
    4        6.512097   1.000000
    5        7.417258   1.000000
    6        7.417258   1.000000
    7        8.802297  -0.000138
    8        8.802297  -0.000138
    9       10.068747  -0.000000
   10       10.068747  -0.000000
   11       14.514905   0.000000
   12       14.514905   0.000000
   13       15.489831   0.000000
   14       15.489831   0.000000
   15       16.756934   0.000000
   16       16.756934   0.000000
 
  0.1666667E+00  0.1666667E+00  0.0000000E+00  0.6944444E-02
    1       -2.640225   1.000000
    2        3.376688   1.000000
    3        3.376688   1.000000
    4        5.709957   1.000000
    5        7.098687   1.000000
    6        9.209279  -0.000000
    7        9.399127  -0.000000
    8        9.399127  -0.000000
    9       11.378019  -0.000000
   10       11.378019  -0.000000
   11       12.870761  -0.000000
   12       12.870761  -0.000000
   13       14.413031   0.000000
   14       15.917248   0.000000
   15       17.018568   0.000000
   16       17.089693   0.000000
 
  0.2500000E+00  0.1666667E+00  0.0000000E+00  0.1388889E-01
    1       -2.318857   1.000000
    2        2.218219   1.000000
    3        3.682875   1.000000
    4        6.003875   1.000000
    5        7.328136   1.000000
    6        8.181835   0.643758
    7        9.670597  -0.000000
    8       10.253698  -0.000000
    9       11.092027  -0.000000
   10       11.674693  -0.000000
   11       11.906246  -0.000000
   12       13.173219  -0.000000
   13       13.901428   0.000000
   14       15.913117   0.000000
   15       17.066089   0.000000
   16       17.066654   0.000000
 
  0.3333333E+00  0.1666667E+00  0.0000000E+00  0.1388889E-01
    1       -1.870200   1.000000
    2        1.164012   1.000000
    3        4.110243   1.000000
    4        6.415691   1.000000
    5        6.939185   1.000000
    6        7.990886   1.033798
    7        9.248045  -0.000000
    8        9.967625  -0.000000
    9       11.070864  -0.000000
   10       12.089681  -0.000000
   11       12.829520  -0.000000
   12       13.021774  -0.000000
   13       13.657583   0.000000
   14       14.920204   0.000000
   15       16.163773   0.000000
   16       17.784622   0.000000
 
  0.4166667E+00  0.1666667E+00  0.0000000E+00  0.1388889E-01
    1       -1.295610   1.000000
    2        0.224125   1.000000
    3        4.657218   1.000000
    4        6.094238   1.000000
    5        6.945699   1.000000
    6        8.361575   0.031375
    7        8.479751  -0.034307
    8        9.772763  -0.000000
    9       10.924416  -0.000000
   10       12.186812  -0.000000
   11       12.622584  -0.000000
   12       13.934527   0.000000
   13       14.039157   0.000000
   14       14.985739   0.000000
   15       15.341020   0.000000
   16       18.302422   0.000000
 
  0.5000000E+00  0.1666667E+00  0.0000000E+00  0.6944444E-02
    1       -0.596756   1.000000
    2       -0.596756   1.000000
    3        5.320955   1.000000
    4        5.320955   1.000000
    5        7.594227   1.000050
    6        7.594227   1.000050
    7        9.109920  -0.000000
    8        9.109920  -0.000000
    9       11.460261  -0.000000
   10       11.460261  -0.000000
   11       13.272744  -0.000000
   12       13.272744  -0.000000
   13       14.606722   0.000000
   14       14.606722   0.000000
   15       16.943602   0.000000
   16       16.943602   0.000000
 
  0.2500000E+00  0.2500000E+00  0.0000000E+00  0.6944444E-02
    1       -1.998240   1.000000
    2        2.527796   1.000000
    3        2.527796   1.000000
    4        6.297999   1.000000
    5        6.828205   1.000000
    6        7.879471   1.019227
    7       10.549869  -0.000000
    8       10.549869  -0.000000
    9       11.277148  -0.000000
   10       11.277148  -0.000000
   11       12.297023  -0.000000
   12       12.297023  -0.000000
   13       14.800754   0.000000
   14       14.959902   0.000000
   15       16.120857   0.000000
   16       16.642097   0.000000
 
  0.3333333E+00  0.2500000E+00  0.0000000E+00  0.1388889E-01
    1       -1.550687   1.000000
    2        1.476305   1.000000
    3        2.959980   1.000000
    4        5.868548   1.000000
    5        6.710075   1.000000
    6        8.254257   0.342850
    7        9.543835  -0.000000
    8       10.964412  -0.000000
    9       10.970218  -0.000000
   10       12.063489  -0.000000
   11       12.374889  -0.000000
   12       13.424291  -0.000000
   13       13.800808   0.000000
   14       14.576739   0.000000
   15       15.212974   0.000000
   16       17.856193   0.000000
 
  0.4166667E+00  0.2500000E+00  0.0000000E+00  0.1388889E-01
    1       -0.977444   1.000000
    2        0.538695   1.000000
    3        3.513399   1.000000
    4        4.973854   1.000000
    5        7.240395   1.000000
    6        8.656987  -0.003930
    7        8.790614  -0.000188
    8       10.195529  -0.000000
    9       11.497166  -0.000000
   10       12.489933  -0.000000
   11       12.916040  -0.000000
   12       12.987705  -0.000000
   13       13.815518   0.000000
   14       14.381029   0.000000
   15       15.246098   0.000000
   16       19.252404   0.000000
 
  0.5000000E+00  0.2500000E+00  0.0000000E+00  0.6944444E-02
    1       -0.280252   1.000000
    2       -0.280252   1.000000
    3        4.185918   1.000000
    4        4.185918   1.000000
    5        7.889263   1.021430
    6        7.889263   1.021430
    7        9.445070  -0.000000
    8        9.445070  -0.000000
    9       12.147870  -0.000000
   10       12.147870  -0.000000
   11       13.098628  -0.000000
   12       13.098628  -0.000000
   13       13.639294   0.000000
   14       13.639294   0.000000
   15       17.218740   0.000000
   16       17.218740   0.000000
 
  0.3333333E+00  0.3333333E+00  0.0000000E+00  0.6944444E-02
    1       -1.104608   1.000000
    2        1.912311   1.000000
    3        1.912311   1.000000
    4        4.856264   1.000000
    5        7.122499   1.000000
    6        8.675301  -0.002758
    7        9.957989  -0.000000
    8        9.957989  -0.000000
    9       11.498151  -0.000000
   10       11.498151  -0.000000
   11       12.797061  -0.000000
   12       13.758146   0.000000
   13       13.758146   0.000000
   14       14.296234   0.000000
   15       15.726757   0.000000
   16       17.545711   0.000000
 
  0.4166667E+00  0.3333333E+00  0.0000000E+00  0.1388889E-01
    1       -0.533274   1.000000
    2        0.977855   1.000000
    3        2.470698   1.000000
    4        3.946435   1.000000
    5        7.653230   1.000252
    6        9.070706  -0.000000
    7        9.220949  -0.000000
    8       10.490505  -0.000000
    9       10.646451  -0.000000
   10       11.910305  -0.000000
   11       12.055216  -0.000000
   12       13.454819  -0.000000
   13       14.251135   0.000000
   14       15.480947   0.000000
   15       15.628032   0.000000
   16       18.833095   0.000000
 
  0.5000000E+00  0.3333333E+00  0.0000000E+00  0.6944444E-02
    1        0.161633   1.000000
    2        0.161633   1.000000
    3        3.149660   1.000000
    4        3.149660   1.000000
    5        8.302532   0.170247
    6        8.302532   0.170247
    7        9.881334  -0.000000
    8        9.881334  -0.000000
    9       11.141330  -0.000000
   10       11.141330  -0.000000
   11       12.705693  -0.000000
   12       12.705693  -0.000000
   13       14.846967   0.000000
   14       14.846967   0.000000
   15       17.575602   0.000000
   16       17.575602   0.000000
 
  0.4166667E+00  0.4166667E+00  0.0000000E+00  0.6944444E-02
    1        0.035644   1.000000
    2        1.540369   1.000000
    3        1.540369   1.000000
    4        3.027734   1.000000
    5        8.184405   0.633374
    6        9.602848  -0.000000
    7        9.602848  -0.000000
    8        9.768407  -0.000000
    9       11.022680  -0.000000
   10       11.194730  -0.000000
   11       11.194730  -0.000000
   12       12.604589  -0.000000
   13       16.103352   0.000000
   14       16.103352   0.000000
   15       16.714023   0.000000
   16       18.653671   0.000000
 
  0.5000000E+00  0.4166667E+00  0.0000000E+00  0.6944444E-02
    1        0.727626   1.000000
    2        0.727626   1.000000
    3        2.224490   1.000000
    4        2.224490   1.000000
    5        8.834204  -0.000056
    6        8.834204  -0.000056
    7       10.253510  -0.000000
    8       10.253510  -0.000000
    9       10.428636  -0.000000
   10       10.428636  -0.000000
   11       11.848350  -0.000000
   12       11.848350  -0.000000
   13       16.607592   0.000000
   14       16.607592   0.000000
   15       17.950909   0.000000
   16       17.950909   0.000000
 
  0.5000000E+00  0.5000000E+00  0.0000000E+00  0.1736111E-02
    1        1.416016   1.000000
    2        1.416016   1.000000
    3        1.416016   1.000000
    4        1.416016   1.000000
    5        9.484484  -0.000000
    6        9.484484  -0.000000
    7        9.484484  -0.000000
    8        9.484484  -0.000000
    9       11.086053  -0.000000
   10       11.086053  -0.000000
   11       11.086053  -0.000000
   12       11.086053  -0.000000
   13       17.920766   0.000000
   14       17.920766   0.000000
   15       17.920766   0.000000
   16       17.920766   0.000000
 
  0.8333333E-01  0.8333333E-01  0.8333333E-01  0.4629630E-02
    1       -2.962389   1.000000
    2        4.480963   1.000000
    3        4.480963   1.000000
    4        4.480963   1.000000
    5        7.729190   1.001534
    6        7.729190   1.001534
    7        7.729190   1.001534
    8       11.587931  -0.000000
    9       11.587931  -0.000000
   10       11.587931  -0.000000
   11       14.139477   0.000000
   12       14.139477   0.000000
   13       14.139477   0.000000
   14       15.254222   0.000000
   15       15.254222   0.000000
   16       15.254222   0.000000
 
  0.1666667E+00  0.8333333E-01  0.8333333E-01  0.1388889E-01
    1       -2.769002   1.000000
    2        3.254008   1.000000
    3        4.661866   1.000000
    4        4.661866   1.000000
    5        7.904740   1.025001
    6        7.904740   1.025001
    7        9.284219  -0.000000
    8       10.417561  -0.000000
    9       10.417561  -0.000000
   10       11.768820  -0.000000
   11       13.532008  -0.000000
   12       13.532008  -0.000000
   13       14.301919   0.000000
   14       15.436355   0.000000
   15       16.423867   0.000000
   16       16.423867   0.000000
 
  0.2500000E+00  0.8333333E-01  0.8333333E-01  0.1388889E-01
    1       -2.447311   1.000000
    2        2.094186   1.000000
    3        4.962789   1.000000
    4        4.962789   1.000000
    5        8.179727   0.652218
    6        8.179727   0.652218
    7        9.334135  -0.000000
    8        9.334135  -0.000000
    9       10.981982  -0.000000
   10       12.077860  -0.000000
   11       12.565764  -0.000000
   12       12.565764  -0.000000
   13       14.572791   0.000000
   14       15.739134   0.000000
   15       16.239079   0.000000
   16       18.057307   0.000000
 
  0.3333333E+00  0.8333333E-01  0.8333333E-01  0.1388889E-01
    1       -1.998229   1.000000
    2        1.038901   1.000000
    3        5.382501   1.000000
    4        5.382501   1.000000
    5        8.171160   0.686001
    6        8.171160   0.686001
    7        8.749973  -0.000529
    8        8.749973  -0.000529
    9       11.630563  -0.000000
   10       11.630563  -0.000000
   11       12.406687  -0.000000
   12       12.890791  -0.000000
   13       14.952242   0.000000
   14       15.265310   0.000000
   15       16.161397   0.000000
   16       17.551873   0.000000
 
  0.4166667E+00  0.8333333E-01  0.8333333E-01  0.1388889E-01
    1       -1.423085   1.000000
    2        0.098100   1.000000
    3        5.917046   1.000000
    4        5.917046   1.000000
    5        7.363771   1.000000
    6        7.363771   1.000000
    7        9.166149  -0.000000
    8        9.166149  -0.000000
    9       10.809702  -0.000000
   10       10.809702  -0.000000
   11       12.982634  -0.000000
   12       14.395319   0.000000
   13       14.767474   0.000000
   14       15.440356   0.000000
   15       16.702584   0.000000
   16       16.741414   0.000000
 
  0.5000000E+00  0.8333333E-01  0.8333333E-01  0.6944444E-02
    1       -0.723558   1.000000
    2       -0.723558   1.000000
    3        6.456260   1.000000
    4        6.456260   1.000000
    5        6.714582   1.000000
    6        6.714582   1.000000
    7        9.517310  -0.000000
    8        9.517310  -0.000000
    9       10.341053  -0.000000
   10       10.341053  -0.000000
   11       13.634234   0.000000
   12       13.634234   0.000000
   13       16.036985   0.000000
   14       16.036985   0.000000
   15       16.749634   0.000000
   16       16.749634   0.000000
 
  0.1666667E+00  0.1666667E+00  0.8333333E-01  0.1388889E-01
    1       -2.575885   1.000000
    2        3.437961   1.000000
    3        3.437961   1.000000
    4        4.842321   1.000000
    5        8.058525   0.987245
    6        9.287059  -0.000000
    7        9.440885  -0.000000
    8        9.440885  -0.000000
    9       10.612979  -0.000000
   10       10.612979  -0.000000
   11       13.703338   0.000000
   12       13.703338   0.000000
   13       14.467257   0.000000
   14       15.978946   0.000000
   15       16.160109   0.000000
   16       16.600991   0.000000
 
  0.2500000E+00  0.1666667E+00  0.8333333E-01  0.2777778E-01
    1       -2.254676   1.000000
    2        2.280185   1.000000
    3        3.743948   1.000000
    4        5.142046   1.000000
    5        7.966062   1.035351
    6        8.575535  -0.014593
    7        9.357370  -0.000000
    8        9.877297  -0.000000
    9       10.778634  -0.000000
   10       11.276238  -0.000000
   11       12.747329  -0.000000
   12       13.958474   0.000000
   13       13.989884   0.000000
   14       15.081859   0.000000
   15       16.895163   0.000000
   16       17.125544   0.000000
 
  0.3333333E+00  0.1666667E+00  0.8333333E-01  0.2777778E-01
    1       -1.806241   1.000000
    2        1.226529   1.000000
    3        4.170900   1.000000
    4        5.557243   1.000000
    5        7.072537   1.000000
    6        8.433924  -0.032001
    7        8.884547  -0.000012
    8       10.177322  -0.000000
    9       11.266702  -0.000000
   10       11.837798  -0.000000
   11       13.010374  -0.000000
   12       13.081439  -0.000000
   13       14.099937   0.000000
   14       14.398535   0.000000
   15       17.009999   0.000000
   16       17.304539   0.000000
 
  0.4166667E+00  0.1666667E+00  0.8333333E-01  0.2777778E-01
    1       -1.231923   1.000000
    2        0.287100   1.000000
    3        4.716836   1.000000
    4        5.993922   1.000000
    5        6.291076   1.000000
    6        7.553305   1.000014
    7        9.399074  -0.000000
    8       10.456552  -0.000000
    9       11.216207  -0.000000
   10       11.808233  -0.000000
   11       12.251075  -0.000000
   12       13.224453  -0.000000
   13       14.705688   0.000000
   14       15.119794   0.000000
   15       16.187831   0.000000
   16       17.825764   0.000000
 
  0.5000000E+00  0.1666667E+00  0.8333333E-01  0.1388889E-01
    1       -0.533398   1.000000
    2       -0.533398   1.000000
    3        5.375928   1.000000
    4        5.375928   1.000000
    5        6.786541   1.000000
    6        6.786541   1.000000
    7       10.007567  -0.000000
    8       10.007567  -0.000000
    9       11.543639  -0.000000
   10       11.543639  -0.000000
   11       12.459960  -0.000000
   12       12.459960  -0.000000
   13       15.456947   0.000000
   14       15.456947   0.000000
   15       16.985509   0.000000
   16       16.985509   0.000000
 
  0.2500000E+00  0.2500000E+00  0.8333333E-01  0.1388889E-01
    1       -1.934222   1.000000
    2        2.589609   1.000000
    3        2.589609   1.000000
    4        5.437123   1.000000
    5        6.965204   1.000000
    6        8.773649  -0.000293
    7        9.738934  -0.000000
    8        9.738934  -0.000000
    9       11.472450  -0.000000
   10       11.472450  -0.000000
   11       13.061678  -0.000000
   12       13.061678  -0.000000
   13       13.993837   0.000000
   14       15.014266   0.000000
   15       16.702751   0.000000
   16       16.992322   0.000000
 
  0.3333333E+00  0.2500000E+00  0.8333333E-01  0.2777778E-01
    1       -1.486874   1.000000
    2        1.538683   1.000000
    3        3.021538   1.000000
    4        5.758269   1.000000
    5        6.063284   1.000000
    6        8.743646  -0.000616
    7        9.181361  -0.000000
    8       10.166025  -0.000000
    9       11.648398  -0.000000
   10       12.345995  -0.000000
   11       13.004982  -0.000000
   12       13.076312  -0.000000
   13       13.667260   0.000000
   14       14.633485   0.000000
   15       16.085374   0.000000
   16       17.913739   0.000000
 
  0.4166667E+00  0.2500000E+00  0.8333333E-01  0.2777778E-01
    1       -0.913898   1.000000
    2        0.601525   1.000000
    3        3.574505   1.000000
    4        5.029011   1.000000
    5        6.430273   1.000000
    6        7.855035   1.014175
    7        9.714260  -0.000000
    8       10.704022  -0.000000
    9       11.082726  -0.000000
   10       12.124636  -0.000000
   11       12.569629  -0.000000
   12       13.860480   0.000000
   13       13.874521   0.000000
   14       15.254485   0.000000
   15       15.308631   0.000000
   16       19.315081   0.000000
 
  0.5000000E+00  0.2500000E+00  0.8333333E-01  0.1388889E-01
    1       -0.217035   1.000000
    2       -0.217035   1.000000
    3        4.245922   1.000000
    4        4.245922   1.000000
    5        7.081570   1.000000
    6        7.081570   1.000000
    7       10.357289  -0.000000
    8       10.357289  -0.000000
    9       11.356991  -0.000000
   10       11.356991  -0.000000
   11       13.161558  -0.000000
   12       13.161558  -0.000000
   13       14.515106   0.000000
   14       14.515106   0.000000
   15       17.271083   0.000000
   16       17.271083   0.000000
 
  0.3333333E+00  0.3333333E+00  0.8333333E-01  0.1388889E-01
    1       -1.041007   1.000000
    2        1.974479   1.000000
    3        1.974479   1.000000
    4        4.911542   1.000000
    5        6.310833   1.000000
    6        9.164850  -0.000000
    7        9.164850  -0.000000
    8        9.602009  -0.000000
    9       12.011011  -0.000000
   10       12.376279  -0.000000
   11       12.376279  -0.000000
   12       13.831367   0.000000
   13       13.831367   0.000000
   14       15.172064   0.000000
   15       15.781295   0.000000
   16       17.604119   0.000000
 
  0.4166667E+00  0.3333333E+00  0.8333333E-01  0.2777778E-01
    1       -0.469937   1.000000
    2        1.040488   1.000000
    3        2.532561   1.000000
    4        4.006651   1.000000
    5        6.843441   1.000000
    6        8.274635   0.264692
    7        9.702460  -0.000000
    8       10.140296  -0.000000
    9       11.127000  -0.000000
   10       11.544434  -0.000000
   11       12.940927  -0.000000
   12       14.312024   0.000000
   13       14.333364   0.000000
   14       15.537232   0.000000
   15       15.685757   0.000000
   16       18.888107   0.000000
 
  0.5000000E+00  0.3333333E+00  0.8333333E-01  0.1388889E-01
    1        0.224650   1.000000
    2        0.224650   1.000000
    3        3.211022   1.000000
    4        3.211022   1.000000
    5        7.499845   1.000002
    6        7.499845   1.000002
    7       10.356821  -0.000000
    8       10.356821  -0.000000
    9       10.790814  -0.000000
   10       10.790814  -0.000000
   11       13.588040   0.000000
   12       13.588040   0.000000
   13       14.904939   0.000000
   14       14.904939   0.000000
   15       17.629637   0.000000
   16       17.629637   0.000000
 
  0.4166667E+00  0.4166667E+00  0.8333333E-01  0.1388889E-01
    1        0.098731   1.000000
    2        1.602740   1.000000
    3        1.602740   1.000000
    4        3.089186   1.000000
    5        7.380916   1.000000
    6        8.812501  -0.000104
    7        8.812501  -0.000104
    8       10.240239  -0.000000
    9       10.680188  -0.000000
   10       12.088913  -0.000000
   11       12.088913  -0.000000
   12       13.487486  -0.000000
   13       16.159793   0.000000
   14       16.159793   0.000000
   15       16.768759   0.000000
   16       18.708152   0.000000
 
  0.5000000E+00  0.4166667E+00  0.8333333E-01  0.1388889E-01
    1        0.790385   1.000000
    2        0.790385   1.000000
    3        2.286497   1.000000
    4        2.286497   1.000000
    5        8.037929   1.010028
    6        8.037929   1.010028
    7        9.468081  -0.000000
    8        9.468081  -0.000000
    9       11.331618  -0.000000
   10       11.331618  -0.000000
   11       12.736712  -0.000000
   12       12.736712  -0.000000
   13       16.663179   0.000000
   14       16.663179   0.000000
   15       18.005478   0.000000
   16       18.005478   0.000000
 
  0.5000000E+00  0.5000000E+00  0.8333333E-01  0.3472222E-02
    1        1.478447   1.000000
    2        1.478447   1.000000
    3        1.478447   1.000000
    4        1.478447   1.000000
    5        8.694453  -0.001863
    6        8.694453  -0.001863
    7        8.694453  -0.001863
    8        8.694453  -0.001863
    9       11.981534  -0.000000
   10       11.981534  -0.000000
   11       11.981534  -0.000000
   12       11.981534  -0.000000
   13       17.975704   0.000000
   14       17.975704   0.000000
   15       17.975704   0.000000
   16       17.975704   0.000000
 
  0.1666667E+00  0.1666667E+00  0.1666667E+00  0.4629630E-02
    1       -2.383075   1.000000
    2        3.621578   1.000000
    3        3.621578   1.000000
    4        3.621578   1.000000
    5        9.265704  -0.000000
    6        9.265704  -0.000000
    7        9.265704  -0.000000
    8        9.810087  -0.000000
    9        9.810087  -0.000000
   10        9.810087  -0.000000
   11       14.629981   0.000000
   12       14.629981   0.000000
   13       14.629981   0.000000
   14       15.014763   0.000000
   15       16.163414   0.000000
   16       16.163414   0.000000
 
  0.2500000E+00  0.1666667E+00  0.1666667E+00  0.1388889E-01
    1       -2.062324   1.000000
    2        2.465917   1.000000
    3        3.926849   1.000000
    4        3.926849   1.000000
    5        8.262011   0.312358