unknown system                          
           1
     3.984095    0.000000    0.000000
     0.000000    3.984095    0.000000
     0.000000    0.000000    3.984095
   Al
   4
Direct configuration=     1
   0.00000000  0.00000000  0.00000000
   0.00000000  0.50000000  0.50000000
   0.50000000  0.00000000  0.50000000
   0.50000000  0.50000000  0.00000000
