   2   2   0   0
  0.3943422E+02  0.2464000E-09  0.2464000E-09  0.1500000E-08  0.2000000E-15
  1.000000000000000E-004
  CAR 
 graphene                                
     12.41948162    -23.54156166  301     -2.78904293      1.00000000
    -23.542  0.0000E+00  0.0000E+00
    -23.422  0.0000E+00  0.0000E+00
    -23.302  0.0000E+00  0.0000E+00
    -23.182  0.0000E+00  0.0000E+00
    -23.062  0.0000E+00  0.0000E+00
    -22.942  0.0000E+00  0.0000E+00
    -22.822  0.0000E+00  0.0000E+00
    -22.702  0.0000E+00  0.0000E+00
    -22.583  0.0000E+00  0.0000E+00
    -22.463  0.0000E+00  0.0000E+00
    -22.343  0.0000E+00  0.0000E+00
    -22.223  0.0000E+00  0.0000E+00
    -22.103  0.6278E-11  0.7525E-12
    -21.983  0.6729E-05  0.8066E-06
    -21.863  0.5921E-03  0.7178E-04
    -21.744  0.2384E-02  0.3575E-03
    -21.624  0.1515E-02  0.5391E-03
    -21.504  0.3277E-02  0.9319E-03
    -21.384  0.4822E-03  0.9897E-03
    -21.264  0.2251E-02  0.1260E-02
    -21.144  0.3018E-02  0.1621E-02
    -21.024  0.2336E-02  0.1901E-02
    -20.904  0.2186E-03  0.1927E-02
    -20.785  0.1735E-02  0.2135E-02
    -20.665  0.5434E-02  0.2787E-02
    -20.545  0.6507E-03  0.2865E-02
    -20.425  0.1463E-02  0.3040E-02
    -20.305  0.1142E-02  0.3177E-02
    -20.185  0.1110E-02  0.3310E-02
    -20.065  0.4106E-02  0.3802E-02
    -19.945  0.4147E-02  0.4300E-02
    -19.826  0.1064E-02  0.4427E-02
    -19.706  0.1036E-04  0.4428E-02
    -19.586  0.1993E-02  0.4667E-02
    -19.466  0.1061E-02  0.4794E-02
    -19.346  0.4526E-02  0.5337E-02
    -19.226  0.2836E-02  0.5677E-02
    -19.106  0.8761E-03  0.5782E-02
    -18.986  0.4301E-02  0.6297E-02
    -18.867  0.3975E-04  0.6302E-02
    -18.747  0.8294E-06  0.6302E-02
    -18.627  0.1316E-02  0.6460E-02
    -18.507  0.5628E-02  0.7135E-02
    -18.387  0.2173E-02  0.7395E-02
    -18.267  0.3900E-02  0.7862E-02
    -18.147  0.1774E-04  0.7865E-02
    -18.028  0.1671E-02  0.8065E-02
    -17.908  0.3533E-02  0.8489E-02
    -17.788  0.8995E-05  0.8490E-02
    -17.668  0.2148E-04  0.8492E-02
    -17.548  0.2725E-02  0.8819E-02
    -17.428  0.7469E-02  0.9714E-02
    -17.308  0.3792E-03  0.9760E-02
    -17.188  0.4723E-02  0.1033E-01
    -17.069  0.3243E-03  0.1036E-01
    -16.949  0.1089E-04  0.1037E-01
    -16.829  0.3641E-02  0.1080E-01
    -16.709  0.1561E-02  0.1099E-01
    -16.589  0.8397E-04  0.1100E-01
    -16.469  0.5319E-02  0.1164E-01
    -16.349  0.4643E-02  0.1219E-01
    -16.229  0.4208E-02  0.1270E-01
    -16.110  0.8539E-04  0.1271E-01
    -15.990  0.2157E-09  0.1271E-01
    -15.870  0.1875E-07  0.1271E-01
    -15.750  0.2790E-03  0.1274E-01
    -15.630  0.1430E-02  0.1291E-01
    -15.510  0.2726E-02  0.1324E-01
    -15.390  0.4482E-02  0.1378E-01
    -15.271  0.1634E-02  0.1397E-01
    -15.151  0.3773E-02  0.1443E-01
    -15.031  0.1380E-04  0.1443E-01
    -14.911  0.8783E-04  0.1444E-01
    -14.791  0.5638E-02  0.1511E-01
    -14.671  0.2278E-02  0.1539E-01
    -14.551  0.2353E-02  0.1567E-01
    -14.431  0.2626E-02  0.1598E-01
    -14.312  0.5242E-02  0.1661E-01
    -14.192  0.2364E-04  0.1661E-01
    -14.072  0.4977E-08  0.1661E-01
    -13.952  0.4433E-03  0.1667E-01
    -13.832  0.6530E-02  0.1745E-01
    -13.712  0.3448E-02  0.1786E-01
    -13.592  0.6947E-05  0.1786E-01
    -13.472  0.1982E-02  0.1810E-01
    -13.353  0.3226E-02  0.1849E-01
    -13.233  0.5337E-05  0.1849E-01
    -13.113  0.5838E-03  0.1856E-01
    -12.993  0.3353E-02  0.1896E-01
    -12.873  0.6280E-02  0.1971E-01
    -12.753  0.2787E-02  0.2005E-01
    -12.633  0.3002E-04  0.2005E-01
    -12.514  0.1934E-10  0.2005E-01
    -12.394  0.3076E-06  0.2005E-01
    -12.274  0.1949E-02  0.2029E-01
    -12.154  0.6145E-02  0.2102E-01
    -12.034  0.9010E-02  0.2210E-01
    -11.914  0.1145E-02  0.2224E-01
    -11.794  0.4485E-07  0.2224E-01
    -11.674  0.2202E-09  0.2224E-01
    -11.555  0.9289E-04  0.2225E-01
    -11.435  0.4457E-02  0.2278E-01
    -11.315  0.5590E-02  0.2346E-01
    -11.195  0.2884E-03  0.2349E-01
    -11.075  0.2068E-02  0.2374E-01
    -10.955  0.3147E-02  0.2411E-01
    -10.835  0.4658E-02  0.2467E-01
    -10.715  0.3170E-02  0.2505E-01
    -10.596  0.3629E-02  0.2549E-01
    -10.476  0.1588E-02  0.2568E-01
    -10.356  0.3717E-02  0.2612E-01
    -10.236  0.1621E-02  0.2632E-01
    -10.116  0.1309E-02  0.2648E-01
     -9.996  0.2948E-02  0.2683E-01
     -9.876  0.9253E-02  0.2794E-01
     -9.756  0.9028E-02  0.2902E-01
     -9.637  0.2497E-02  0.2932E-01
     -9.517  0.6346E-02  0.3008E-01
     -9.397  0.4690E-02  0.3064E-01
     -9.277  0.8305E-03  0.3074E-01
     -9.157  0.6957E-02  0.3158E-01
     -9.037  0.7735E-02  0.3250E-01
     -8.917  0.9273E-02  0.3361E-01
     -8.798  0.6045E-02  0.3434E-01
     -8.678  0.5322E-02  0.3498E-01
     -8.558  0.7225E-02  0.3584E-01
     -8.438  0.8390E-02  0.3685E-01
     -8.318  0.2393E-02  0.3714E-01
     -8.198  0.1610E-02  0.3733E-01
     -8.078  0.1058E-01  0.3860E-01
     -7.958  0.4083E-02  0.3909E-01
     -7.839  0.4513E-02  0.3963E-01
     -7.719  0.6938E-04  0.3964E-01
     -7.599  0.2548E-02  0.3994E-01
     -7.479  0.9749E-02  0.4111E-01
     -7.359  0.5926E-02  0.4182E-01
     -7.239  0.2661E-02  0.4214E-01
     -7.119  0.5013E-02  0.4274E-01
     -6.999  0.1784E-03  0.4276E-01
     -6.880  0.3668E-02  0.4320E-01
     -6.760  0.7117E-02  0.4405E-01
     -6.640  0.4781E-02  0.4463E-01
     -6.520  0.1546E-03  0.4465E-01
     -6.400  0.4229E-02  0.4515E-01
     -6.280  0.3055E-02  0.4552E-01
     -6.160  0.4839E-02  0.4610E-01
     -6.041  0.7447E-02  0.4699E-01
     -5.921  0.1203E-02  0.4714E-01
     -5.801  0.3588E-02  0.4757E-01
     -5.681  0.4680E-02  0.4813E-01
     -5.561  0.2139E-02  0.4838E-01
     -5.441  0.5322E-03  0.4845E-01
     -5.321  0.2561E-02  0.4875E-01
     -5.201  0.3068E-02  0.4912E-01
     -5.082  0.5564E-02  0.4979E-01
     -4.962  0.4758E-02  0.5036E-01
     -4.842  0.4889E-02  0.5095E-01
     -4.722  0.1668E-02  0.5115E-01
     -4.602  0.6422E-05  0.5115E-01
     -4.482  0.9871E-03  0.5126E-01
     -4.362  0.1617E-02  0.5146E-01
     -4.242  0.1283E-02  0.5161E-01
     -4.123  0.6378E-02  0.5238E-01
     -4.003  0.2767E-02  0.5271E-01
     -3.883  0.2339E-05  0.5271E-01
     -3.763  0.5027E-13  0.5271E-01
     -3.643  0.9481E-10  0.5271E-01
     -3.523  0.6018E-04  0.5272E-01
     -3.403  0.2335E-02  0.5300E-01
     -3.284  0.2119E-03  0.5302E-01
     -3.164  0.1119E-05  0.5302E-01
     -3.044  0.1361E-02  0.5318E-01
     -2.924  0.1244E-02  0.5333E-01
     -2.804  0.7389E-06  0.5333E-01
     -2.684  0.1051E-13  0.5333E-01
     -2.564  0.0000E+00  0.5333E-01
     -2.444  0.0000E+00  0.5333E-01
     -2.325  0.0000E+00  0.5333E-01
     -2.205  0.0000E+00  0.5333E-01
     -2.085  0.1447E-18  0.5333E-01
     -1.965  0.8298E-09  0.5333E-01
     -1.845  0.1460E-03  0.5335E-01
     -1.725  0.2368E-02  0.5363E-01
     -1.605  0.9348E-04  0.5365E-01
     -1.485  0.5694E-03  0.5371E-01
     -1.366  0.2026E-02  0.5396E-01
     -1.246  0.1170E-04  0.5396E-01
     -1.126  0.2519E-11  0.5396E-01
     -1.006  0.1644E-06  0.5396E-01
     -0.886  0.1875E-02  0.5418E-01
     -0.766  0.8583E-02  0.5521E-01
     -0.646  0.4381E-02  0.5574E-01
     -0.526  0.4618E-02  0.5629E-01
     -0.407  0.9449E-04  0.5630E-01
     -0.287  0.5315E-05  0.5630E-01
     -0.167  0.3252E-02  0.5669E-01
     -0.047  0.4172E-02  0.5719E-01
      0.073  0.3917E-03  0.5724E-01
      0.193  0.1299E-03  0.5726E-01
      0.313  0.4685E-02  0.5782E-01
      0.432  0.1132E-02  0.5795E-01
      0.552  0.2824E-02  0.5829E-01
      0.672  0.4230E-02  0.5880E-01
      0.792  0.3363E-04  0.5880E-01
      0.912  0.2253E-03  0.5883E-01
      1.032  0.1366E-02  0.5899E-01
      1.152  0.1465E-02  0.5917E-01
      1.272  0.4649E-02  0.5973E-01
      1.391  0.4664E-02  0.6028E-01
      1.511  0.3695E-02  0.6073E-01
      1.631  0.2826E-03  0.6076E-01
      1.751  0.5268E-02  0.6139E-01
      1.871  0.4803E-02  0.6197E-01
      1.991  0.5705E-03  0.6204E-01
      2.111  0.4334E-02  0.6256E-01
      2.231  0.4232E-02  0.6306E-01
      2.350  0.3651E-02  0.6350E-01
      2.470  0.6750E-02  0.6431E-01
      2.590  0.6670E-02  0.6511E-01
      2.710  0.2330E-02  0.6539E-01
      2.830  0.4212E-02  0.6589E-01
      2.950  0.1165E-01  0.6729E-01
      3.070  0.1345E-02  0.6745E-01
      3.189  0.7870E-02  0.6840E-01
      3.309  0.7050E-02  0.6924E-01
      3.429  0.3126E-02  0.6962E-01
      3.549  0.6694E-02  0.7042E-01
      3.669  0.8292E-02  0.7141E-01
      3.789  0.4153E-03  0.7146E-01
      3.909  0.3604E-02  0.7189E-01
      4.029  0.1112E-01  0.7323E-01
      4.148  0.3505E-02  0.7365E-01
      4.268  0.7538E-03  0.7374E-01
      4.388  0.1086E-01  0.7504E-01
      4.508  0.9118E-02  0.7613E-01
      4.628  0.5651E-02  0.7681E-01
      4.748  0.8309E-02  0.7780E-01
      4.868  0.9736E-02  0.7897E-01
      4.988  0.2520E-02  0.7927E-01
      5.107  0.8726E-02  0.8032E-01
      5.227  0.4602E-02  0.8087E-01
      5.347  0.7582E-02  0.8178E-01
      5.467  0.4856E-02  0.8236E-01
      5.587  0.1241E-01  0.8385E-01
      5.707  0.1231E-01  0.8533E-01
      5.827  0.1334E-01  0.8693E-01
      5.946  0.1223E-01  0.8839E-01
      6.066  0.6460E-02  0.8917E-01
      6.186  0.3610E-05  0.8917E-01
      6.306  0.5066E-03  0.8923E-01
      6.426  0.4613E-02  0.8978E-01
      6.546  0.1863E-02  0.9000E-01
      6.666  0.6009E-02  0.9072E-01
      6.786  0.2143E-02  0.9098E-01
      6.905  0.1103E-01  0.9230E-01
      7.025  0.9089E-02  0.9339E-01
      7.145  0.1051E-01  0.9465E-01
      7.265  0.1163E-02  0.9479E-01
      7.385  0.1322E-02  0.9495E-01
      7.505  0.8830E-02  0.9601E-01
      7.625  0.3084E-03  0.9605E-01
      7.745  0.2244E-02  0.9631E-01
      7.864  0.1377E-02  0.9648E-01
      7.984  0.4324E-02  0.9700E-01
      8.104  0.7064E-02  0.9784E-01
      8.224  0.3094E-02  0.9822E-01
      8.344  0.9897E-02  0.9940E-01
      8.464  0.1434E-01  0.1011E+00
      8.584  0.6878E-02  0.1019E+00
      8.704  0.8112E-03  0.1020E+00
      8.823  0.6867E-02  0.1029E+00
      8.943  0.4894E-02  0.1035E+00
      9.063  0.1944E-02  0.1037E+00
      9.183  0.5635E-02  0.1044E+00
      9.303  0.2721E-02  0.1047E+00
      9.423  0.8771E-03  0.1048E+00
      9.543  0.1792E-06  0.1048E+00
      9.662  0.8201E-15  0.1048E+00
      9.782  0.4022E-07  0.1048E+00
      9.902  0.6490E-03  0.1049E+00
     10.022  0.8273E-02  0.1059E+00
     10.142  0.4109E-02  0.1064E+00
     10.262  0.2996E-05  0.1064E+00
     10.382  0.6186E-13  0.1064E+00
     10.502  0.1447E-17  0.1064E+00
     10.621  0.4922E-08  0.1064E+00
     10.741  0.2837E-03  0.1064E+00
     10.861  0.2283E-02  0.1067E+00
     10.981  0.4036E-04  0.1067E+00
     11.101  0.3767E-10  0.1067E+00
     11.221  0.0000E+00  0.1067E+00
     11.341  0.0000E+00  0.1067E+00
     11.461  0.0000E+00  0.1067E+00
     11.580  0.0000E+00  0.1067E+00
     11.700  0.0000E+00  0.1067E+00
     11.820  0.0000E+00  0.1067E+00
     11.940  0.0000E+00  0.1067E+00
     12.060  0.0000E+00  0.1067E+00
     12.180  0.0000E+00  0.1067E+00
     12.300  0.0000E+00  0.1067E+00
     12.419  0.0000E+00  0.1067E+00
