    2    2  150    1
  0.3943422E+02  0.2464000E-09  0.2464000E-09  0.1500000E-08  0.2000000E-15
  1.000000000000000E-004
  CAR 
 graphene                                
      8     30      8
 
  0.0000000E+00  0.0000000E+00  0.0000000E+00  0.3906250E-02
    1      -21.906969   1.000000
    2      -10.218742   1.000000
    3       -5.447038   1.000000
    4       -5.447036   1.000000
    5        0.910372   0.000000
    6        1.962080   0.000000
    7        2.313578   0.000000
    8        4.208678   0.000000
 
  0.6250000E-01  0.2501621E-18  0.0000000E+00  0.2343750E-01
    1      -21.813979   1.000000
    2      -10.106013   1.000000
    3       -5.814909   1.000000
    4       -5.647918   1.000000
    5        1.036825   0.000000
    6        2.090254   0.000000
    7        2.443345   0.000000
    8        4.336060   0.000000
 
  0.1250000E+00  0.5003241E-18  0.0000000E+00  0.2343750E-01
    1      -21.535543   1.000000
    2       -9.769400   1.000000
    3       -6.809227   1.000000
    4       -6.165843   1.000000
    5        1.416353   0.000000
    6        2.474231   0.000000
    7        2.832746   0.000000
    8        4.717390   0.000000
 
  0.1875000E+00  0.7504862E-18  0.0000000E+00  0.2343750E-01
    1      -21.073351   1.000000
    2       -9.214149   1.000000
    3       -8.204580   1.000000
    4       -6.831019   1.000000
    5        2.048641   0.000000
    6        3.111446   0.000000
    7        3.481751   0.000000
    8        5.346177   0.000000
 
  0.2500000E+00  0.1000648E-17  0.0000000E+00  0.2343750E-01
    1      -20.430451   1.000000
    2       -9.799711   1.000000
    3       -8.451180   1.000000
    4       -7.500006   1.000000
    5        2.931937   0.000000
    6        3.978323   0.000000
    7        4.389448   0.000000
    8        4.970298   0.000000
 
  0.3125000E+00  0.1250810E-17  0.0000000E+00  0.2343750E-01
    1      -19.611799   1.000000
    2      -11.456672   1.000000
    3       -8.082021   1.000000
    4       -7.502781   1.000000
    5        3.142646   0.000000
    6        4.061005   0.000000
    7        5.181706   0.000000
    8        5.519118   0.000000
 
  0.3750000E+00  0.1500972E-17  0.0000000E+00  0.2343750E-01
    1      -18.625993   1.000000
    2      -13.085992   1.000000
    3       -8.524958   1.000000
    4       -6.420667   1.000000
    5        1.406069   0.000000
    6        5.314374   0.000000
    7        5.586819   0.000000
    8        6.559769   0.000000
 
  0.4375000E+00  0.1751134E-17  0.0000000E+00  0.2343750E-01
    1      -17.494901   1.000000
    2      -14.619122   1.000000
    3       -8.800163   1.000000
    4       -5.357143   1.000000
    5       -0.083653   0.000000
    6        5.315733   0.000000
    7        7.077837   0.000000
    8        8.173009   0.000000
 
  0.5000000E+00  0.2001296E-17  0.0000000E+00  0.1171875E-01
    1      -16.528536   1.000000
    2      -15.721981   1.000000
    3       -8.893344   1.000000
    4       -4.813774   1.000000
    5       -0.774079   0.000000
    6        5.276519   0.000000
    7        8.856576   0.000000
    8        8.948983   0.000000
 
  0.6250000E-01  0.6250000E-01  0.0000000E+00  0.2343750E-01
    1      -21.628265   1.000000
    2       -9.881323   1.000000
    3       -6.453782   1.000000
    4       -6.049927   1.000000
    5        1.289891   0.000000
    6        2.346357   0.000000
    7        2.702962   0.000000
    8        4.590490   0.000000
 
  0.1250000E+00  0.6250000E-01  0.0000000E+00  0.4687500E-01
    1      -21.257962   1.000000
    2       -9.435223   1.000000
    3       -7.572906   1.000000
    4       -6.718428   1.000000
    5        1.796136   0.000000
    6        2.857350   0.000000
    7        3.222333   0.000000
    8        5.097444   0.000000
 
  0.1875000E+00  0.6250000E-01  0.0000000E+00  0.4687500E-01
    1      -20.705443   1.000000
    2       -9.016194   1.000000
    3       -8.775384   1.000000
    4       -7.438426   1.000000
    5        2.554579   0.000000
    6        3.617715   0.000000
    7        4.001219   0.000000
    8        5.632391   0.000000
 
  0.2500000E+00  0.6250000E-01  0.0000000E+00  0.4687500E-01
    1      -19.974695   1.000000
    2      -10.613900   1.000000
    3       -8.092262   1.000000
    4       -7.917177   1.000000
    5        3.562511   0.000000
    6        3.932147   0.000000
    7        4.686878   0.000000
    8        5.037926   0.000000
 
  0.3125000E+00  0.6250000E-01  0.0000000E+00  0.4687500E-01
    1      -19.072285   1.000000
    2      -12.242596   1.000000
    3       -8.618674   1.000000
    4       -6.893323   1.000000
    5        2.216793   0.000000
    6        4.811372   0.000000
    7        5.923029   0.000000
    8        5.944031   0.000000
 
  0.3750000E+00  0.6250000E-01  0.0000000E+00  0.4687500E-01
    1      -18.011061   1.000000
    2      -13.819339   1.000000
    3       -8.984145   1.000000
    4       -5.788225   1.000000
    5        0.584231   0.000000
    6        5.755871   0.000000
    7        6.351990   0.000000
    8        7.413267   0.000000
 
  0.4375000E+00  0.6250000E-01  0.0000000E+00  0.4687500E-01
    1      -16.847424   1.000000
    2      -15.249243   1.000000
    3       -9.170794   1.000000
    4       -4.882564   1.000000
    5       -0.600534   0.000000
    6        5.692837   0.000000
    7        8.051510   0.000000
    8        9.089399   0.000000
 
  0.1250000E+00  0.1250000E+00  0.0000000E+00  0.2343750E-01
    1      -20.797350   1.000000
    2       -8.884047   1.000000
    3       -8.583517   1.000000
    4       -7.599579   1.000000
    5        2.429025   0.000000
    6        3.493751   0.000000
    7        3.871856   0.000000
    8        5.728281   0.000000
 
  0.1875000E+00  0.1250000E+00  0.0000000E+00  0.4687500E-01
    1      -20.157039   1.000000
    2       -9.876023   1.000000
    3       -8.458712   1.000000
    4       -8.126639   1.000000
    5        3.313057   0.000000
    6        4.343893   0.000000
    7        4.514761   0.000000
    8        4.780858   0.000000
 
  0.2500000E+00  0.1250000E+00  0.0000000E+00  0.4687500E-01
    1      -19.342481   1.000000
    2      -11.371257   1.000000
    3       -9.131119   1.000000
    4       -7.184412   1.000000
    5        2.867394   0.000000
    6        4.444392   0.000000
    7        5.517056   0.000000
    8        5.947723   0.000000
 
  0.3125000E+00  0.1250000E+00  0.0000000E+00  0.4687500E-01
    1      -18.363153   1.000000
    2      -12.917228   1.000000
    3       -9.611011   1.000000
    4       -6.105794   1.000000
    5        1.248446   0.000000
    6        5.813430   0.000000
    7        6.872122   0.000000
    8        6.959506   0.000000
 
  0.3750000E+00  0.1250000E+00  0.0000000E+00  0.4687500E-01
    1      -17.242770   1.000000
    2      -14.404145   1.000000
    3       -9.900416   1.000000
    4       -5.033362   1.000000
    5       -0.177698   0.000000
    6        6.819796   0.000000
    7        7.446030   0.000000
    8        8.388059   0.000000
 
  0.4375000E+00  0.1250000E+00  0.0000000E+00  0.2343750E-01
    1      -16.294679   1.000000
    2      -15.478342   1.000000
    3       -9.997259   1.000000
    4       -4.471291   1.000000
    5       -0.862758   0.000000
    6        6.789341   0.000000
    7        9.171602   0.000000
    8        9.287929   0.000000
 
  0.1875000E+00  0.1875000E+00  0.0000000E+00  0.2343750E-01
    1      -19.432919   1.000000
    2      -10.838886   1.000000
    3       -9.564041   1.000000
    4       -7.282611   1.000000
    5        3.130826   0.000000
    6        4.320423   0.000000
    7        5.373426   0.000000
    8        5.819738   0.000000
 
  0.2500000E+00  0.1875000E+00  0.0000000E+00  0.4687500E-01
    1      -18.541042   1.000000
    2      -12.066242   1.000000
    3      -10.375947   1.000000
    4       -6.272502   1.000000
    5        1.688764   0.000000
    6        5.570323   0.000000
    7        6.580168   0.000000
    8        7.116140   0.000000
 
  0.3125000E+00  0.1875000E+00  0.0000000E+00  0.4687500E-01
    1      -17.496857   1.000000
    2      -13.461695   1.000000
    3      -10.846476   1.000000
    4       -5.167309   1.000000
    5        0.262072   0.000000
    6        7.048720   0.000000
    7        7.894087   0.000000
    8        8.432652   0.000000
 
  0.3750000E+00  0.1875000E+00  0.0000000E+00  0.4687500E-01
    1      -16.362605   1.000000
    2      -14.802738   1.000000
    3      -11.065818   1.000000
    4       -4.218099   1.000000
    5       -0.860236   0.000000
    6        8.337547   0.000000
    7        8.748728   0.000000
    8        8.833119   0.000000
 
  0.2500000E+00  0.2500000E+00  0.0000000E+00  0.2343750E-01
    1      -17.583133   1.000000
    2      -12.833613   1.000000
    3      -11.489460   1.000000
    4       -5.218847   1.000000
    5        0.452944   0.000000
    6        6.927052   0.000000
    7        7.704202   0.000000
    8        8.539637   0.000000
 
  0.3125000E+00  0.2500000E+00  0.0000000E+00  0.4687500E-01
    1      -16.498542   1.000000
    2      -13.903422   1.000000
    3      -12.096586   1.000000
    4       -4.120140   1.000000
    5       -0.753987   0.000000
    6        8.301541   0.000000
    7        8.479935   0.000000
    8       10.025163   0.000000
 
  0.3750000E+00  0.2500000E+00  0.0000000E+00  0.2343750E-01
    1      -15.594688   1.000000
    2      -14.845166   1.000000
    3      -12.262027   1.000000
    4       -3.452754   1.000000
    5       -1.457966   0.000000
    6        8.333382   0.000000
    7        9.929701   0.000000
    8       10.016458   0.000000
 
  0.3125000E+00  0.3125000E+00  0.0000000E+00  0.2343750E-01
    1      -15.441779   1.000000
    2      -14.434987   1.000000
    3      -12.991428   1.000000
    4       -3.045766   1.000000
    5       -1.788874   0.000000
    6        8.062569   0.000000
    7        9.968998   0.000000
    8       10.784889   0.000000
