   1   1   0   0
  0.1580990E+02  0.2817181E-09  0.2817181E-09  0.2817181E-09  0.5000000E-15
  1.000000000000000E-004
  CAR 
 unknown system                          
     37.56802981     -5.15537808  301      8.23268230      1.00000000
     -5.155  0.0000E+00  0.0000E+00
     -5.013  0.0000E+00  0.0000E+00
     -4.871 -0.1113E-35 -0.1586E-36
     -4.728 -0.1249E-30 -0.1779E-31
     -4.586 -0.5036E-26 -0.7171E-27
     -4.443 -0.7340E-22 -0.1045E-22
     -4.301 -0.3769E-18 -0.5368E-19
     -4.158 -0.7205E-15 -0.1027E-15
     -4.016 -0.5077E-12 -0.7240E-13
     -3.874 -0.1338E-09 -0.1912E-10
     -3.731 -0.1336E-07 -0.1921E-08
     -3.589 -0.5005E-06 -0.7320E-07
     -3.446 -0.6502E-05 -0.9992E-06
     -3.304 -0.1969E-04 -0.3804E-05
     -3.162  0.6802E-04  0.5883E-05
     -3.019  0.4006E-03  0.6294E-04
     -2.877  0.8432E-03  0.1830E-03
     -2.734  0.1048E-02  0.3323E-03
     -2.592  0.1315E-02  0.5196E-03
     -2.450  0.1604E-02  0.7480E-03
     -2.307  0.1407E-02  0.9484E-03
     -2.165  0.1808E-02  0.1206E-02
     -2.022  0.2279E-02  0.1530E-02
     -1.880  0.1822E-02  0.1790E-02
     -1.738  0.1756E-02  0.2040E-02
     -1.595  0.2623E-02  0.2414E-02
     -1.453  0.2922E-02  0.2830E-02
     -1.310  0.2042E-02  0.3121E-02
     -1.168  0.2182E-02  0.3431E-02
     -1.025  0.2846E-02  0.3837E-02
     -0.883  0.3044E-02  0.4270E-02
     -0.741  0.3480E-02  0.4766E-02
     -0.598  0.2766E-02  0.5159E-02
     -0.456  0.1993E-02  0.5443E-02
     -0.313  0.3079E-02  0.5882E-02
     -0.171  0.4271E-02  0.6490E-02
     -0.029  0.3677E-02  0.7014E-02
      0.114  0.3086E-02  0.7453E-02
      0.256  0.3412E-02  0.7939E-02
      0.399  0.2545E-02  0.8301E-02
      0.541  0.3420E-02  0.8788E-02
      0.683  0.4929E-02  0.9490E-02
      0.826  0.4404E-02  0.1012E-01
      0.968  0.3429E-02  0.1061E-01
      1.111  0.3601E-02  0.1112E-01
      1.253  0.3948E-02  0.1168E-01
      1.396  0.3273E-02  0.1215E-01
      1.538  0.4026E-02  0.1272E-01
      1.680  0.4921E-02  0.1342E-01
      1.823  0.5032E-02  0.1414E-01
      1.965  0.5470E-02  0.1492E-01
      2.108  0.3662E-02  0.1544E-01
      2.250  0.2346E-02  0.1577E-01
      2.392  0.4411E-02  0.1640E-01
      2.535  0.5821E-02  0.1723E-01
      2.677  0.4904E-02  0.1793E-01
      2.820  0.4928E-02  0.1863E-01
      2.962  0.5470E-02  0.1941E-01
      3.104  0.4799E-02  0.2009E-01
      3.247  0.5084E-02  0.2082E-01
      3.389  0.4368E-02  0.2144E-01
      3.532  0.3587E-02  0.2195E-01
      3.674  0.5134E-02  0.2268E-01
      3.817  0.6700E-02  0.2363E-01
      3.959  0.5519E-02  0.2442E-01
      4.101  0.5965E-02  0.2527E-01
      4.244  0.5730E-02  0.2609E-01
      4.386  0.4409E-02  0.2671E-01
      4.529  0.5604E-02  0.2751E-01
      4.671  0.5055E-02  0.2823E-01
      4.813  0.4348E-02  0.2885E-01
      4.956  0.5815E-02  0.2968E-01
      5.098  0.7436E-02  0.3074E-01
      5.241  0.6725E-02  0.3170E-01
      5.383  0.7051E-02  0.3270E-01
      5.525  0.6375E-02  0.3361E-01
      5.668  0.5324E-02  0.3437E-01
      5.810  0.5505E-02  0.3515E-01
      5.953  0.4992E-02  0.3586E-01
      6.095  0.6095E-02  0.3673E-01
      6.238  0.6689E-02  0.3768E-01
      6.380  0.5127E-02  0.3841E-01
      6.522  0.4336E-02  0.3903E-01
      6.665  0.7119E-02  0.4004E-01
      6.807  0.8349E-02  0.4123E-01
      6.950  0.5250E-02  0.4198E-01
      7.092  0.5634E-02  0.4278E-01
      7.234  0.6667E-02  0.4373E-01
      7.377  0.4689E-02  0.4440E-01
      7.519  0.5408E-02  0.4517E-01
      7.662  0.6895E-02  0.4615E-01
      7.804  0.6240E-02  0.4704E-01
      7.946  0.6879E-02  0.4802E-01
      8.089  0.6375E-02  0.4893E-01
      8.231  0.7454E-02  0.4999E-01
      8.374  0.7800E-02  0.5110E-01
      8.516  0.6233E-02  0.5199E-01
      8.659  0.7022E-02  0.5299E-01
      8.801  0.5592E-02  0.5378E-01
      8.943  0.4575E-02  0.5443E-01
      9.086  0.5266E-02  0.5518E-01
      9.228  0.7360E-02  0.5623E-01
      9.371  0.1011E-01  0.5767E-01
      9.513  0.9498E-02  0.5903E-01
      9.655  0.6472E-02  0.5995E-01
      9.798  0.4992E-02  0.6066E-01
      9.940  0.7112E-02  0.6167E-01
     10.083  0.7300E-02  0.6271E-01
     10.225  0.7089E-02  0.6372E-01
     10.367  0.5988E-02  0.6457E-01
     10.510  0.5929E-02  0.6542E-01
     10.652  0.6930E-02  0.6640E-01
     10.795  0.9167E-02  0.6771E-01
     10.937  0.9347E-02  0.6904E-01
     11.080  0.7857E-02  0.7016E-01
     11.222  0.8139E-02  0.7132E-01
     11.364  0.7255E-02  0.7235E-01
     11.507  0.5775E-02  0.7317E-01
     11.649  0.6323E-02  0.7407E-01
     11.792  0.7929E-02  0.7520E-01
     11.934  0.8707E-02  0.7644E-01
     12.076  0.9210E-02  0.7776E-01
     12.219  0.7161E-02  0.7878E-01
     12.361  0.7180E-02  0.7980E-01
     12.504  0.9320E-02  0.8113E-01
     12.646  0.8416E-02  0.8232E-01
     12.788  0.7999E-02  0.8346E-01
     12.931  0.9400E-02  0.8480E-01
     13.073  0.8269E-02  0.8598E-01
     13.216  0.5681E-02  0.8679E-01
     13.358  0.6980E-02  0.8778E-01
     13.501  0.9011E-02  0.8907E-01
     13.643  0.1101E-01  0.9063E-01
     13.785  0.1190E-01  0.9233E-01
     13.928  0.9289E-02  0.9365E-01
     14.070  0.8183E-02  0.9482E-01
     14.213  0.7918E-02  0.9594E-01
     14.355  0.6949E-02  0.9693E-01
     14.497  0.9939E-02  0.9835E-01
     14.640  0.1266E-01  0.1002E+00
     14.782  0.1008E-01  0.1016E+00
     14.925  0.8659E-02  0.1028E+00
     15.067  0.7644E-02  0.1039E+00
     15.209  0.7562E-02  0.1050E+00
     15.352  0.7454E-02  0.1060E+00
     15.494  0.8714E-02  0.1073E+00
     15.637  0.1181E-01  0.1090E+00
     15.779  0.1124E-01  0.1106E+00
     15.922  0.7973E-02  0.1117E+00
     16.064  0.7459E-02  0.1128E+00
     16.206  0.7685E-02  0.1139E+00
     16.349  0.6840E-02  0.1148E+00
     16.491  0.7615E-02  0.1159E+00
     16.634  0.1057E-01  0.1174E+00
     16.776  0.1035E-01  0.1189E+00
     16.918  0.8079E-02  0.1201E+00
     17.061  0.7904E-02  0.1212E+00
     17.203  0.9796E-02  0.1226E+00
     17.346  0.1017E-01  0.1240E+00
     17.488  0.7692E-02  0.1251E+00
     17.630  0.7713E-02  0.1262E+00
     17.773  0.6796E-02  0.1272E+00
     17.915  0.7659E-02  0.1283E+00
     18.058  0.1130E-01  0.1299E+00
     18.200  0.1153E-01  0.1315E+00
     18.342  0.8941E-02  0.1328E+00
     18.485  0.8722E-02  0.1340E+00
     18.627  0.8270E-02  0.1352E+00
     18.770  0.7648E-02  0.1363E+00
     18.912  0.1047E-01  0.1378E+00
     19.055  0.1092E-01  0.1394E+00
     19.197  0.7766E-02  0.1405E+00
     19.339  0.7040E-02  0.1415E+00
     19.482  0.9847E-02  0.1429E+00
     19.624  0.1319E-01  0.1447E+00
     19.767  0.1250E-01  0.1465E+00
     19.909  0.1081E-01  0.1481E+00
     20.051  0.9358E-02  0.1494E+00
     20.194  0.9807E-02  0.1508E+00
     20.336  0.1169E-01  0.1525E+00
     20.479  0.1248E-01  0.1542E+00
     20.621  0.1163E-01  0.1559E+00
     20.763  0.1034E-01  0.1574E+00
     20.906  0.9086E-02  0.1587E+00
     21.048  0.9625E-02  0.1600E+00
     21.191  0.9959E-02  0.1614E+00
     21.333  0.1076E-01  0.1630E+00
     21.476  0.1080E-01  0.1645E+00
     21.618  0.9516E-02  0.1659E+00
     21.760  0.1050E-01  0.1674E+00
     21.903  0.1138E-01  0.1690E+00
     22.045  0.1210E-01  0.1707E+00
     22.188  0.1009E-01  0.1721E+00
     22.330  0.9962E-02  0.1736E+00
     22.472  0.1068E-01  0.1751E+00
     22.615  0.8613E-02  0.1763E+00
     22.757  0.7194E-02  0.1773E+00
     22.900  0.7098E-02  0.1783E+00
     23.042  0.9000E-02  0.1796E+00
     23.184  0.1174E-01  0.1813E+00
     23.327  0.1352E-01  0.1832E+00
     23.469  0.1322E-01  0.1851E+00
     23.612  0.1054E-01  0.1866E+00
     23.754  0.1054E-01  0.1881E+00
     23.897  0.1439E-01  0.1902E+00
     24.039  0.1337E-01  0.1921E+00
     24.181  0.1098E-01  0.1936E+00
     24.324  0.1096E-01  0.1952E+00
     24.466  0.8747E-02  0.1964E+00
     24.609  0.7526E-02  0.1975E+00
     24.751  0.6976E-02  0.1985E+00
     24.893  0.9268E-02  0.1998E+00
     25.036  0.1577E-01  0.2021E+00
     25.178  0.1706E-01  0.2045E+00
     25.321  0.1388E-01  0.2065E+00
     25.463  0.1226E-01  0.2082E+00
     25.605  0.1011E-01  0.2097E+00
     25.748  0.1049E-01  0.2112E+00
     25.890  0.1155E-01  0.2128E+00
     26.033  0.1076E-01  0.2143E+00
     26.175  0.1353E-01  0.2163E+00
     26.318  0.1319E-01  0.2181E+00
     26.460  0.9924E-02  0.2195E+00
     26.602  0.9983E-02  0.2210E+00
     26.745  0.9455E-02  0.2223E+00
     26.887  0.1143E-01  0.2239E+00
     27.030  0.1452E-01  0.2260E+00
     27.172  0.1127E-01  0.2276E+00
     27.314  0.9472E-02  0.2290E+00
     27.457  0.9147E-02  0.2303E+00
     27.599  0.1105E-01  0.2318E+00
     27.742  0.1277E-01  0.2337E+00
     27.884  0.8130E-02  0.2348E+00
     28.026  0.4224E-02  0.2354E+00
     28.169  0.4610E-02  0.2361E+00
     28.311  0.9813E-02  0.2375E+00
     28.454  0.1117E-01  0.2391E+00
     28.596  0.8967E-02  0.2403E+00
     28.739  0.9129E-02  0.2416E+00
     28.881  0.9143E-02  0.2429E+00
     29.023  0.9861E-02  0.2443E+00
     29.166  0.7912E-02  0.2455E+00
     29.308  0.5372E-02  0.2462E+00
     29.451  0.7396E-02  0.2473E+00
     29.593  0.9858E-02  0.2487E+00
     29.735  0.9418E-02  0.2500E+00
     29.878  0.8355E-02  0.2512E+00
     30.020  0.6386E-02  0.2521E+00
     30.163  0.4948E-02  0.2528E+00
     30.305  0.5690E-02  0.2537E+00
     30.447  0.5799E-02  0.2545E+00
     30.590  0.4906E-02  0.2552E+00
     30.732  0.4615E-02  0.2558E+00
     30.875  0.5988E-02  0.2567E+00
     31.017  0.5342E-02  0.2574E+00
     31.160  0.3531E-02  0.2579E+00
     31.302  0.3262E-02  0.2584E+00
     31.444  0.4448E-02  0.2590E+00
     31.587  0.5051E-02  0.2598E+00
     31.729  0.4089E-02  0.2603E+00
     31.872  0.3624E-02  0.2609E+00
     32.014  0.3635E-02  0.2614E+00
     32.156  0.2875E-02  0.2618E+00
     32.299  0.1660E-02  0.2620E+00
     32.441  0.1070E-02  0.2622E+00
     32.584  0.3661E-02  0.2627E+00
     32.726  0.4708E-02  0.2634E+00
     32.868  0.2901E-02  0.2638E+00
     33.011  0.2558E-02  0.2642E+00
     33.153  0.1945E-02  0.2644E+00
     33.296  0.1534E-02  0.2646E+00
     33.438  0.2310E-02  0.2650E+00
     33.581  0.1934E-02  0.2653E+00
     33.723  0.8810E-03  0.2654E+00
     33.865  0.1083E-02  0.2655E+00
     34.008  0.1376E-02  0.2657E+00
     34.150  0.1404E-02  0.2659E+00
     34.293  0.1418E-02  0.2661E+00
     34.435  0.8915E-03  0.2663E+00
     34.577  0.9109E-03  0.2664E+00
     34.720  0.6290E-03  0.2665E+00
     34.862  0.4266E-04  0.2665E+00
     35.005 -0.5833E-05  0.2665E+00
     35.147  0.4587E-03  0.2665E+00
     35.289  0.6218E-03  0.2666E+00
     35.432  0.1627E-03  0.2667E+00
     35.574  0.2625E-04  0.2667E+00
     35.717  0.4467E-04  0.2667E+00
     35.859  0.6153E-05  0.2667E+00
     36.002 -0.3032E-05  0.2667E+00
     36.144 -0.5186E-06  0.2667E+00
     36.286 -0.2143E-07  0.2667E+00
     36.429 -0.2810E-09  0.2667E+00
     36.571 -0.1251E-11  0.2667E+00
     36.714 -0.1944E-14  0.2667E+00
     36.856 -0.1069E-17  0.2667E+00
     36.998  0.0000E+00  0.2667E+00
     37.141  0.0000E+00  0.2667E+00
     37.283  0.0000E+00  0.2667E+00
     37.426  0.0000E+00  0.2667E+00
     37.568  0.0000E+00  0.2667E+00
