    1    1   60    1
  0.1580990E+02  0.2817181E-09  0.2817181E-09  0.2817181E-09  0.5000000E-15
  1.000000000000000E-004
  CAR 
 unknown system                          
      3    195      8
 
  0.0000000E+00  0.0000000E+00  0.0000000E+00  0.1714678E-03
    1       -3.155378   1.000000
    2       21.050022   0.000000
    3       21.050022   0.000000
    4       21.050024   0.000000
    5       22.699133   0.000000
    6       22.699135   0.000000
    7       22.699135   0.000000
    8       25.169395   0.000000
 
  0.5555556E-01 -0.1868332E-17 -0.1424876E-17  0.1371742E-02
    1       -3.069269   1.000000
    2       19.546625   0.000000
    3       20.755212   0.000000
    4       20.755216   0.000000
    5       23.127131   0.000000
    6       23.127133   0.000000
    7       23.273209   0.000000
    8       26.048134   0.000000
 
  0.1111111E+00 -0.3736664E-17 -0.2849752E-17  0.1371742E-02
    1       -2.811239   1.000000
    2       17.294708   0.000000
    3       20.254460   0.000000
    4       20.254466   0.000000
    5       23.358168   0.000000
    6       23.998169   0.000000
    7       23.998171   0.000000
    8       26.466611   0.000000
 
  0.1666667E+00 -0.1085402E-16 -0.2481253E-17  0.1371742E-02
    1       -2.382316   1.000000
    2       15.017864   0.000000
    3       19.811067   0.000000
    4       19.811075   0.000000
    5       23.203603   0.000000
    6       24.591546   0.000000
    7       24.591566   0.000000
    8       25.837104   0.000000
 
  0.2222222E+00  0.1851646E-16 -0.4044081E-17  0.1371742E-02
    1       -1.784156   1.000000
    2       12.815129  -0.000000
    3       19.483791   0.000000
    4       19.483799   0.000000
    5       23.035971   0.000000
    6       23.791057   0.000000
    7       23.791072   0.000000
    8       26.804121   0.000000
 
  0.2777778E+00  0.6198405E-17 -0.5386185E-17  0.1371742E-02
    1       -1.019003   1.000000
    2       10.719922  -0.000000
    3       19.288052   0.000000
    4       19.288061   0.000000
    5       22.782614   0.000000
    6       22.782626   0.000000
    7       22.939303   0.000000
    8       26.995001   0.000000
 
  0.3333333E+00  0.7813315E-17 -0.6838652E-17  0.1371742E-02
    1       -0.089585   1.000000
    2        8.747898  -0.000819
    3       19.230977   0.000000
    4       19.230986   0.000000
    5       21.864841   0.000000
    6       21.864851   0.000000
    7       22.955524   0.000000
    8       26.039949   0.000000
 
  0.3888889E+00 -0.1998277E-16 -0.6525334E-17  0.1371742E-02
    1        1.000584   1.000000
    2        6.910172   1.000000
    3       19.313823   0.000000
    4       19.313833   0.000000
    5       21.073512   0.000000
    6       21.073521   0.000000
    7       23.106442   0.000000
    8       25.186067   0.000000
 
  0.4444444E+00  0.3703293E-16 -0.8088162E-17  0.1371742E-02
    1        2.246578   1.000000
    2        5.214806   1.000000
    3       19.538625   0.000000
    4       19.538636   0.000000
    5       20.420858   0.000000
    6       20.420867   0.000000
    7       23.402138   0.000000
    8       24.457093   0.000000
 
  0.5000000E+00 -0.1686331E-16  0.1832531E-16  0.6858711E-03
    1        3.521718   1.000000
    2        3.789584   1.000000
    3       19.878020   0.000000
    4       19.878044   0.000000
    5       19.936146   0.000000
    6       19.936147   0.000000
    7       23.779434   0.000000
    8       23.931020   0.000000
 
  0.5555556E-01  0.5555556E-01 -0.2198625E-18  0.1028807E-02
    1       -3.040573   1.000000
    2       20.046661   0.000000
    3       20.046661   0.000000
    4       20.292388   0.000000
    5       22.432712   0.000000
    6       23.868681   0.000000
    7       23.868681   0.000000
    8       26.156666   0.000000
 
  0.1111111E+00  0.5555556E-01 -0.1099988E-17  0.4115226E-02
    1       -2.839891   1.000000
    2       18.069961   0.000000
    3       19.404615   0.000000
    4       20.368232   0.000000
    5       22.588066   0.000000
    6       24.285326   0.000000
    7       24.796676   0.000000
    8       25.340155   0.000000
 
  0.1666667E+00  0.5555556E-01 -0.8142606E-18  0.4115226E-02
    1       -2.467977   1.000000
    2       15.814893   0.000000
    3       18.880792   0.000000
    4       20.137278   0.000000
    5       23.242732   0.000000
    6       24.209042   0.000000
    7       24.234451   0.000000
    8       25.644751   0.000000
 
  0.2222222E+00  0.5555556E-01 -0.2156365E-17  0.4115226E-02
    1       -1.926319   1.000000
    2       13.595324   0.000000
    3       18.490040   0.000000
    4       19.844248   0.000000
    5       22.596620   0.000000
    6       24.024054   0.000000
    7       24.863046   0.000000
    8       25.270167   0.000000
 
  0.2777778E+00  0.5555556E-01 -0.3719193E-17  0.4115226E-02
    1       -1.216964   1.000000
    2       11.468433  -0.000000
    3       18.238198   0.000000
    4       19.631351   0.000000
    5       21.511929   0.000000
    6       23.912998   0.000000
    7       24.307763   0.000000
    8       26.160884   0.000000
 
  0.3333333E+00  0.5555556E-01 -0.5061298E-17  0.4115226E-02
    1       -0.342458   1.000000
    2        9.457581  -0.000000
    3       18.127930   0.000000
    4       19.539453   0.000000
    5       20.525811   0.000000
    6       23.376991   0.000000
    7       23.894022   0.000000
    8       26.764503   0.000000
 
  0.3888889E+00  0.5555556E-01 -0.4637618E-17  0.4115226E-02
    1        0.693944   1.000000
    2        7.576918   1.000018
    3       18.160383   0.000000
    4       19.534652   0.000000
    5       19.721851   0.000000
    6       22.554568   0.000000
    7       23.996307   0.000000
    8       26.023471   0.000000
 
  0.4444444E+00  0.5555556E-01 -0.6200446E-17  0.4115226E-02
    1        1.888021   1.000000
    2        5.834713   1.000000
    3       18.336856   0.000000
    4       18.936247   0.000000
    5       19.796014   0.000000
    6       21.861800   0.000000
    7       24.233824   0.000000
    8       25.284252   0.000000
 
  0.5000000E+00  0.5555556E-01 -0.7763274E-17  0.4115226E-02
    1        3.225527   1.000000
    2        4.247692   1.000000
    3       18.370063   0.000000
    4       18.657340   0.000000
    5       20.127660   0.000000
    6       21.306178   0.000000
    7       24.563309   0.000000
    8       24.712663   0.000000
 
 -0.4444444E+00  0.5555556E-01 -0.1800042E-16  0.4115226E-02
    1        2.767249   1.000000
    2        4.755776   1.000000
    3       17.947141   0.000000
    4       19.122370   0.000000
    5       20.606912   0.000000
    6       20.890459   0.000000
    7       24.161342   0.000000
    8       25.150168   0.000000
 
 -0.3888889E+00  0.5555556E-01  0.8413049E-17  0.4115226E-02
    1        1.472851   1.000000
    2        6.399227   1.000000
    3       17.671218   0.000000
    4       19.731970   0.000000
    5       20.617116   0.000000
    6       21.230700   0.000000
    7       23.821792   0.000000
    8       25.803765   0.000000
 
 -0.3333333E+00  0.5555556E-01  0.8616006E-17  0.4115226E-02
    1        0.330736   1.000000
    2        8.188168   0.683280
    3       17.541946   0.000000
    4       20.441313   0.000000
    5       20.524947   0.000000
    6       21.990209   0.000000
    7       23.623766   0.000000
    8       26.570481   0.000000
 
 -0.2777778E+00  0.5555556E-01  0.7053178E-17  0.4115226E-02
    1       -0.652113   1.000000
    2       10.112468  -0.000000
    3       17.559725   0.000000
    4       20.480966   0.000000
    5       21.379919   0.000000
    6       22.870949   0.000000
    7       23.568423   0.000000
    8       27.375156   0.000000
 
 -0.2222222E+00  0.5555556E-01  0.5600712E-17  0.4115226E-02
    1       -1.471905   1.000000
    2       12.161769  -0.000000
    3       17.723494   0.000000
    4       20.617867   0.000000
    5       22.389049   0.000000
    6       23.550679   0.000000
    7       23.935845   0.000000
    8       26.166201   0.000000
 
 -0.1666667E+00  0.5555556E-01  0.4368969E-17  0.4115226E-02
    1       -2.125629   1.000000
    2       14.317393   0.000000
    3       18.034215   0.000000
    4       20.871486   0.000000
    5       23.409244   0.000000
    6       23.696161   0.000000
    7       24.941152   0.000000
    8       24.949664   0.000000
 
 -0.1111111E+00  0.5555556E-01  0.4627106E-17  0.4115226E-02
    1       -2.610889   1.000000
    2       16.536291   0.000000
    3       18.498707   0.000000
    4       21.183120   0.000000
    5       23.368315   0.000000
    6       23.797469   0.000000
    7       25.036562   0.000000
    8       25.117712   0.000000
 
 -0.5555556E-01  0.5555556E-01  0.3202230E-17  0.2057613E-02
    1       -2.925861   1.000000
    2       18.574077   0.000000
    3       19.264732   0.000000
    4       21.273397   0.000000
    5       22.840915   0.000000
    6       23.660312   0.000000
    7       24.133029   0.000000
    8       26.319493   0.000000
 
  0.1111111E+00  0.1111111E+00 -0.4397251E-18  0.1028807E-02
    1       -2.696701   1.000000
    2       18.679504   0.000000
    3       18.679504   0.000000
    4       18.916600   0.000000
    5       21.757172   0.000000
    6       23.893498   0.000000
    7       25.726354   0.000000
    8       25.726355   0.000000
 
  0.1666667E+00  0.1111111E+00  0.1004479E-17  0.4115226E-02
    1       -2.382292   1.000000
    2       16.678891   0.000000
    3       18.090408   0.000000
    4       19.182067   0.000000
    5       21.776937   0.000000
    6       22.497304   0.000000
    7       26.171415   0.000000
    8       26.667908   0.000000
 
  0.2222222E+00  0.1111111E+00 -0.4893729E-18  0.4115226E-02
    1       -1.897853   1.000000
    2       14.488656   0.000000
    3       17.642100   0.000000
    4       19.130942   0.000000
    5       21.100453   0.000000
    6       22.672867   0.000000
    7       26.159297   0.000000
    8       26.765969   0.000000
 
  0.2777778E+00  0.1111111E+00 -0.1831478E-17  0.4115226E-02
    1       -1.245262   1.000000
    2       12.350954  -0.000000
    3       17.336720   0.000000
    4       18.953062   0.000000
    5       19.921442   0.000000
    6       23.884017   0.000000
    7       25.928651   0.000000
    8       26.113653   0.000000
 
  0.3333333E+00  0.1111111E+00 -0.3394305E-17  0.4115226E-02
    1       -0.426894   1.000000
    2       10.312731  -0.000000
    3       17.174918   0.000000
    4       18.688610   0.000000
    5       19.017001   0.000000
    6       25.010548   0.000000
    7       25.169702   0.000000
    8       26.247610   0.000000
 
  0.3888889E+00  0.1111111E+00 -0.2970626E-17  0.4115226E-02
    1        0.554158   1.000000
    2        8.395230   0.006765
    3       17.157130   0.000000
    4       17.873597   0.000000
    5       18.922871   0.000000
    6       24.169034   0.000000
    7       25.814088   0.000000
    8       26.990671   0.000000
 
  0.4444444E+00  0.1111111E+00 -0.4312731E-17  0.4115226E-02
    1        1.694053   1.000000
    2        6.611521   1.000000
    3       17.104725   0.000000
    4       17.283882   0.000000
    5       19.068880   0.000000
    6       23.442976   0.000000
    7       25.990081   0.000000
    8       26.893909   0.000000
 
  0.5000000E+00  0.1111111E+00 -0.5875558E-17  0.4115226E-02
    1        2.985318   1.000000
    2        4.972253   1.000000
    3       16.476418   0.000000
    4       17.555439   0.000000
    5       19.369891   0.000000
    6       22.846755   0.000000
    7       25.846597   0.000000
    8       26.779170   0.000000
 
 -0.4444444E+00  0.1111111E+00  0.1120142E-16  0.4115226E-02
    1        3.442513   1.000000
    2        4.464779   1.000000
    3       15.996744   0.000000
    4       17.972644   0.000000
    5       19.822232   0.000000
    6       22.387909   0.000000
    7       25.442772   0.000000
    8       27.124111   0.000000
 
 -0.3888889E+00  0.1111111E+00 -0.1767553E-16  0.4115226E-02
    1        2.108694   1.000000
    2        6.045820   1.000000
    3       15.669386   0.000000
    4       18.534648   0.000000
    5       20.422791   0.000000
    6       22.067622   0.000000
    7       25.083934   0.000000
    8       27.657343   0.000000
 
 -0.3333333E+00  0.1111111E+00  0.1039336E-16  0.4115226E-02
    1        0.916849   1.000000
    2        7.780130   1.003127
    3       15.495506   0.000000
    4       19.240271   0.000000
    5       21.165963   0.000000
    6       21.886521   0.000000
    7       24.833924   0.000000
    8       28.267250   0.000000
 
 -0.2777778E+00  0.1111111E+00  0.8940893E-17  0.4115226E-02
    1       -0.117746   1.000000
    2        9.647684  -0.000000
    3       15.478730   0.000000
    4       20.085510   0.000000
    5       21.843582   0.000000
    6       22.045401   0.000000
    7       24.696281   0.000000
    8       27.238931   0.000000
 
 -0.2222222E+00  0.1111111E+00  0.7378066E-17  0.4115226E-02
    1       -0.990724   1.000000
    2       11.630175  -0.000000
    3       15.626196   0.000000
    4       21.050529   0.000000
    5       21.933392   0.000000
    6       23.043824   0.000000
    7       24.642093   0.000000
    8       25.695146   0.000000
 
 -0.1666667E+00  0.1111111E+00  0.6035961E-17  0.4115226E-02
    1       -1.698912   1.000000
    2       13.677720   0.000000
    3       15.971330   0.000000
    4       21.941683   0.000000
    5       22.252231   0.000000
    6       24.131633   0.000000
    7       24.411223   0.000000
    8       24.598394   0.000000
 
 -0.1111111E+00  0.1111111E+00  0.4638676E-17  0.2057613E-02
    1       -2.239658   1.000000
    2       15.520487   0.000000
    3       16.751084   0.000000
    4       21.945343   0.000000
    5       22.947588   0.000000
    6       24.050048   0.000000
    7       24.371655   0.000000
    8       25.191916   0.000000
 
  0.1666667E+00  0.1666667E+00 -0.6595876E-18  0.1028807E-02
    1       -2.125589   1.000000
    2       17.443619   0.000000
    3       17.443619   0.000000
    4       17.555370   0.000000
    5       20.892771   0.000000
    6       20.955133   0.000000
    7       27.710446   0.000000
    8       27.710446   0.000000
 
  0.2222222E+00  0.1666667E+00 -0.5053933E-18  0.4115226E-02
    1       -1.698884   1.000000
    2       15.453484   0.000000
    3       16.941131   0.000000
    4       17.994379   0.000000
    5       19.558644   0.000000
    6       20.919066   0.000000
    7       28.230310   0.000000
    8       28.243690   0.000000
 
  0.2777778E+00  0.1666667E+00 -0.1957859E-17  0.4115226E-02
    1       -1.103821   1.000000
    2       13.348762  -0.000000
    3       16.583648   0.000000
    4       17.981424   0.000000
    5       18.381828   0.000000
    6       21.774099   0.000000
    7       27.606717   0.000000
    8       28.342600   0.000000
 
  0.3333333E+00  0.1666667E+00 -0.3327555E-17  0.4115226E-02
    1       -0.342636   1.000000
    2       11.302284  -0.000000
    3       16.371091   0.000000
    4       17.095800   0.000000
    5       18.080650   0.000000
    6       23.087857   0.000000
    7       26.746447   0.000000
    8       28.365173   0.000000
 
  0.3888889E+00  0.1666667E+00 -0.2959056E-17  0.4115226E-02
    1        0.581727   1.000000
    2        9.358674  -0.000000
    3       16.123138   0.000000
    4       16.303243   0.000000
    5       18.065529   0.000000
    6       24.599903   0.000000
    7       25.905577   0.000000
    8       28.406791   0.000000
 
  0.4444444E+00  0.1666667E+00 -0.4411522E-17  0.4115226E-02
    1        1.665601   1.000000
    2        7.539906   1.000006
    3       15.286652   0.000000
    4       16.380433   0.000000
    5       18.184526   0.000000
    6       25.157491   0.000000
    7       26.100479   0.000000
    8       28.496159   0.000000
 
  0.5000000E+00  0.1666667E+00 -0.5974350E-17  0.4115226E-02
    1        2.903200   1.000000
    2        5.858314   1.000000
    3       14.598132   0.000000
    4       16.602740   0.000000
    5       18.449415   0.000000
    6       24.527573   0.000000
    7       26.950501   0.000000
    8       28.972711   0.000000
 
 -0.4444444E+00  0.1666667E+00 -0.1621150E-16  0.4115226E-02
    1        4.155587   1.000000
    2        4.455914   1.000000
    3       14.063208   0.000000
    4       16.970562   0.000000
    5       18.865249   0.000000
    6       24.028310   0.000000
    7       26.833145   0.000000
    8       29.496317   0.000000
 
 -0.3888889E+00  0.1666667E+00  0.9981250E-17  0.4115226E-02
    1        2.904940   1.000000
    2        5.850469   1.000000
    3       13.685631   0.000000
    4       17.484215   0.000000
    5       19.432193   0.000000
    6       23.664878   0.000000
    7       26.506695   0.000000
    8       29.917257   0.000000
 
 -0.3333333E+00  0.1666667E+00 -0.1735065E-16  0.4115226E-02
    1        1.666425   1.000000
    2        7.521910   1.000003
    3       13.470976  -0.000000
    4       18.143479   0.000000
    5       20.145634   0.000000
    6       23.436995   0.000000
    7       26.211747   0.000000
    8       28.705334   0.000000
 
 -0.2777778E+00  0.1666667E+00  0.9062825E-17  0.4115226E-02
    1        0.582086   1.000000
    2        9.314793  -0.000000
    3       13.432240  -0.000000
    4       18.946178   0.000000
    5       20.997781   0.000000
    6       23.335188   0.000000
    7       25.973605   0.000000
    8       26.965793   0.000000
 
 -0.2222222E+00  0.1666667E+00  0.7499997E-17  0.4115226E-02
    1       -0.342510   1.000000
    2       11.170444  -0.000000
    3       13.616661   0.000000
    4       19.889226   0.000000
    5       21.975434   0.000000
    6       23.314043   0.000000
    7       25.410200   0.000000
    8       25.735213   0.000000
 
 -0.1666667E+00  0.1666667E+00  0.7813315E-17  0.2057613E-02
    1       -1.103782   1.000000
    2       12.800299  -0.000000
    3       14.298161   0.000000
    4       20.959961   0.000000
    5       23.047320   0.000000
    6       23.055392   0.000000
    7       24.381303   0.000000
    8       25.333040   0.000000
 
  0.2222222E+00  0.2222222E+00 -0.8794502E-18  0.1028807E-02
    1       -1.330199   1.000000
    2       16.354298   0.000000
    3       16.386575   0.000000
    4       16.386575   0.000000
    5       18.067958   0.000000
    6       20.008937   0.000000
    7       29.622793   0.000000
    8       29.672267   0.000000
 
  0.2777778E+00  0.2222222E+00 -0.7091809E-17  0.4115226E-02
    1       -0.793227   1.000000
    2       14.416581   0.000000
    3       15.978040   0.000000
    4       16.678326   0.000000
    5       17.030605   0.000000
    6       20.069105   0.000000
    7       29.266320   0.000000
    8       30.248686   0.000000
 
  0.3333333E+00  0.2222222E+00 -0.1577791E-17  0.4115226E-02
    1       -0.090101   1.000000
    2       12.405258  -0.000000
    3       15.516002   0.000000
    4       15.715201   0.000000
    5       17.191313   0.000000
    6       20.991142   0.000000
    7       28.540865   0.000000
    8       30.379053   0.000000
 
  0.3888889E+00  0.2222222E+00 -0.1292064E-17  0.4115226E-02
    1        0.776388   1.000000
    2       10.455812  -0.000000
    3       14.470163   0.000000
    4       15.597671   0.000000
    5       17.240851   0.000000
    6       22.397745   0.000000
    7       27.740953   0.000000
    8       30.280304   0.000000
 
  0.4444444E+00  0.2222222E+00 -0.2799710E-17  0.4115226E-02
    1        1.802581   1.000000
    2        8.611988  -0.011007
    3       13.570517   0.000000
    4       15.625091   0.000000
    5       17.349124   0.000000
    6       24.036868   0.000000
    7       26.987253   0.000000
    8       29.966709   0.000000
 
  0.5000000E+00  0.2222222E+00 -0.4086634E-17  0.4115226E-02
    1        2.983121   1.000000
    2        6.895879   1.000000
    3       12.823733  -0.000000
    4       15.798107   0.000000
    5       17.581803   0.000000
    6       25.763293   0.000000
    7       26.333661   0.000000
    8       29.537258   0.000000
 
 -0.4444444E+00  0.2222222E+00  0.1299035E-16  0.4115226E-02
    1        4.298437   1.000000
    2        5.332154   1.000000
    3       12.234739  -0.000000
    4       16.116698   0.000000
    5       17.959611   0.000000
    6       25.801555   0.000000
    7       27.312063   0.000000
    8       29.291867   0.000000
 
 -0.3888889E+00  0.2222222E+00 -0.1588661E-16  0.4115226E-02
    1        3.856592   1.000000
    2        5.811327   1.000000
    3       11.810717  -0.000000
    4       16.581188   0.000000
    5       18.487848   0.000000
    6       25.399323   0.000000
    7       27.848499   0.000000
    8       29.935030   0.000000
 
 -0.3333333E+00  0.2222222E+00  0.1207192E-16  0.4115226E-02
    1        2.576283   1.000000
    2        7.402020   1.000000
    3       11.567123  -0.000000
    4       17.191647   0.000000
    5       19.164838   0.000000
    6       25.126628   0.000000
    7       27.614844   0.000000
    8       28.626013   0.000000
 
 -0.2777778E+00  0.2222222E+00 -0.1702576E-16  0.4115226E-02
    1        1.444623   1.000000
    2        9.062506  -0.000000
    3       11.558428  -0.000000
    4       17.947744   0.000000
    5       19.982948   0.000000
    6       24.959953   0.000000
    7       26.850730   0.000000
    8       27.220637   0.000000
 
 -0.2222222E+00  0.2222222E+00  0.9277351E-17  0.2057613E-02
    1        0.470323   1.000000
    2       10.485740  -0.000000
    3       12.079206  -0.000000
    4       18.848379   0.000000
    5       20.928921   0.000000
    6       24.597716   0.000000
    7       25.529089   0.000000
    8       26.633176   0.000000
 
  0.2777778E+00  0.2777778E+00 -0.1099313E-17  0.1028807E-02
    1       -0.314787   1.000000
    2       15.310729   0.000000
    3       15.353522   0.000000
    4       15.519176   0.000000
    5       15.519176   0.000000
    6       19.199539   0.000000
    7       30.513009   0.000000
    8       31.468015   0.000000
 
  0.3333333E+00  0.2777778E+00  0.2133582E-18  0.4115226E-02
    1        0.329607   1.000000
    2       13.559870   0.000000
    3       14.067692   0.000000
    4       15.206531   0.000000
    5       16.149112   0.000000
    6       19.333604   0.000000
    7       30.298931   0.000000
    8       31.974919   0.000000
 
  0.3888889E+00  0.2777778E+00  0.4301097E-18  0.4115226E-02
    1        1.137080   1.000000
    2       11.653835  -0.000000
    3       12.954962  -0.000000
    4       15.039289   0.000000
    5       16.442417   0.000000
    6       20.348604   0.000000
    7       29.621966   0.000000
    8       31.969495   0.000000
 
  0.4444444E+00  0.2777778E+00 -0.9119950E-18  0.4115226E-02
    1        2.103913   1.000000
    2        9.809481  -0.000000
    3       11.992586  -0.000000
    4       15.017732   0.000000
    5       16.600852   0.000000
    6       21.857199   0.000000
    7       28.905529   0.000000
    8       31.626597   0.000000
 
  0.5000000E+00  0.2777778E+00 -0.2364461E-17  0.4115226E-02
    1        3.224248   1.000000
    2        8.072487   0.990297
    3       11.186852  -0.000000
    4       15.141465   0.000000
    5       16.820074   0.000000
    6       23.609483   0.000000
    7       28.249398   0.000000
    8       31.099122   0.000000
 
 -0.4444444E+00  0.2777778E+00 -0.1265679E-16  0.4115226E-02
    1        4.485342   1.000000
    2        6.467142   1.000000
    3       10.545915  -0.000000
    4       15.410646   0.000000
    5       17.164489   0.000000
    6       25.478416   0.000000
    7       27.694588   0.000000
    8       30.506882   0.000000
 
 -0.3888889E+00  0.2777778E+00  0.1353596E-16  0.4115226E-02
    1        4.951809   1.000000
    2        5.922729   1.000000
    3       10.085984  -0.000000
    4       15.825631   0.000000
    5       17.653660   0.000000
    6       27.261484   0.000000
    7       27.336908   0.000000
    8       29.906520   0.000000
 
 -0.3333333E+00  0.2777778E+00 -0.1379594E-16  0.4115226E-02
    1        3.642160   1.000000
    2        7.370007   1.000000
    3        9.863469  -0.000000
    4       16.386838   0.000000
    5       18.291153   0.000000
    6       26.950974   0.000000
    7       28.686141   0.000000
    8       28.758915   0.000000
 
 -0.2777778E+00  0.2777778E+00  0.1239681E-16  0.2057613E-02
    1        2.466349   1.000000
    2        8.593090  -0.014353
    3       10.185358  -0.000000
    4       17.094343   0.000000
    5       19.071380   0.000000
    6       26.553001   0.000000
    7       27.043695   0.000000
    8       28.274576   0.000000
 
  0.3333333E+00  0.3333333E+00 -0.1319175E-17  0.1028807E-02
    1        0.914550   1.000000
    2       12.713855  -0.000000
    3       14.567143   0.000000
    4       14.844195   0.000000
    5       14.844195   0.000000
    6       18.524792   0.000000
    7       31.551818   0.000000
    8       33.005833   0.000000
 
  0.3888889E+00  0.3333333E+00 -0.4607274E-17  0.4115226E-02
    1        1.661838   1.000000
    2       11.527324  -0.000000
    3       12.966990  -0.000000
    4       14.627922   0.000000
    5       15.513811   0.000000
    6       18.752768   0.000000
    7       31.430967   0.000000
    8       33.379603   0.000000
 
  0.4444444E+00  0.3333333E+00  0.8653589E-18  0.4115226E-02
    1        2.567023   1.000000
    2       10.463656  -0.000000
    3       11.213238  -0.000000
    4       14.557099   0.000000
    5       15.902577   0.000000
    6       19.873383   0.000000
    7       30.838410   0.000000
    8       33.204419   0.000000
 
  0.5000000E+00  0.3333333E+00 -0.5871073E-18  0.4115226E-02
    1        3.622467   1.000000
    2        9.267055  -0.000000
    3        9.811765  -0.000000
    4       14.631572   0.000000
    5       16.167338   0.000000
    6       21.487078   0.000000
    7       30.216537   0.000000
    8       32.695977   0.000000
 
 -0.4444444E+00  0.3333333E+00  0.1676578E-16  0.4115226E-02
    1        4.810620   1.000000
    2        7.720953   1.000887
    3        9.046153  -0.000000
    4       14.851460   0.000000
    5       16.496649   0.000000
    6       23.344216   0.000000
    7       29.662028   0.000000
    8       32.008529   0.000000
 
 -0.3888889E+00  0.3333333E+00 -0.1233190E-16  0.4115226E-02
    1        6.011708   1.000000
    2        6.298783   1.000000
    3        8.582780  -0.016405
    4       15.216923   0.000000
    5       16.952155   0.000000
    6       25.325097   0.000000
    7       29.209717   0.000000
    8       30.876405   0.000000
 
 -0.3333333E+00  0.3333333E+00  0.1562663E-16  0.2057613E-02
    1        4.857119   1.000000
    2        7.123901   1.000000
    3        8.676572  -0.003695
    4       15.728588   0.000000
    5       17.549474   0.000000
    6       27.315652   0.000000
    7       28.880949   0.000000
    8       28.882412   0.000000
 
  0.3888889E+00  0.3888889E+00 -0.1539038E-17  0.1028807E-02
    1        2.347144   1.000000
    2       10.300841  -0.000000
    3       14.004666   0.000000
    4       14.362530   0.000000
    5       14.362530   0.000000
    6       18.021601   0.000000
    7       32.648320   0.000000
    8       34.274087   0.000000
 
  0.4444444E+00  0.3888889E+00 -0.6144736E-17  0.4115226E-02
    1        3.186706   1.000000
    2        9.223093  -0.000000
    3       12.540733  -0.000000
    4       14.242634   0.000000
    5       15.089768   0.000000
    6       18.353004   0.000000
    7       32.597493   0.000000
    8       34.487198   0.000000
 
  0.5000000E+00  0.3888889E+00 -0.6858988E-18  0.4115226E-02
    1        4.166189   1.000000
    2        8.315270   0.181389
    3       10.857984  -0.000000
    4       14.268006   0.000000
    5       15.576576   0.000000
    6       19.582222   0.000000
    7       32.113235   0.000000
    8       34.126127   0.000000
 
 -0.4444444E+00  0.3888889E+00 -0.1086787E-16  0.4115226E-02
    1        5.234467   1.000000
    2        7.619023   1.000063
    3        9.244234  -0.000000
    4       14.438660   0.000000
    5       15.949109   0.000000
    6       21.299511   0.000000
    7       31.586057   0.000000
    8       33.284315   0.000000
 
 -0.3888889E+00  0.3888889E+00  0.1532488E-16  0.2057613E-02
    1        6.077057   1.000000
    2        7.281566   1.000000
    3        7.916925   1.024048
    4       14.754864   0.000000
    5       16.388636   0.000000
    6       23.255419   0.000000
    7       30.959715   0.000000
    8       31.501692   0.000000
 
  0.4444444E+00  0.4444444E+00 -0.1758900E-17  0.1028807E-02
    1        3.950095   1.000000
    2        8.108316   0.929570
    3       13.665099   0.000000
    4       14.073747   0.000000
    5       14.073747   0.000000
    6       17.711375   0.000000
    7       33.597633   0.000000
    8       35.201105   0.000000
 
  0.5000000E+00  0.4444444E+00 -0.5819848E-17  0.4115226E-02
    1        4.809720   1.000000
    2        7.208729   1.000000
    3       12.328524  -0.000000
    4       14.050127   0.000000
    5       14.877482   0.000000
    6       18.150149   0.000000
    7       33.550314   0.000000
    8       35.167332   0.000000
 
 -0.4444444E+00  0.4444444E+00  0.1855470E-16  0.2057613E-02
    1        5.450193   1.000000
    2        6.839185   1.000000
    3       10.748611  -0.000000
    4       14.171694   0.000000
    5       15.467497   0.000000
    6       19.484566   0.000000
    7       32.984273   0.000000
    8       34.123092   0.000000
 
  0.5000000E+00  0.5000000E+00 -0.1978763E-17  0.5144033E-03
    1        5.241446   1.000000
    2        6.620822   1.000000
    3       13.551768  -0.000000
    4       13.977541   0.000000
    5       13.977541   0.000000
    6       17.607484   0.000000
    7       34.018732   0.000000
    8       35.568030   0.000000
 