 running on    8 total cores
 distrk:  each k-point on    8 cores,    1 groups
 distr:  one band on    1 cores,    8 groups
 using from now: INCAR     
 vasp.5.4.4.18Apr17-6-g9f103f2a35 (build Apr 03 2020 19:02:54) complex          
  
 POSCAR found type information on POSCAR  Al
 POSCAR found :  1 types and       1 ions
 scaLAPACK will be used

 ----------------------------------------------------------------------------- 
|                                                                             |
|           W    W    AA    RRRRR   N    N  II  N    N   GGGG   !!!           |
|           W    W   A  A   R    R  NN   N  II  NN   N  G    G  !!!           |
|           W    W  A    A  R    R  N N  N  II  N N  N  G       !!!           |
|           W WW W  AAAAAA  RRRRR   N  N N  II  N  N N  G  GGG   !            |
|           WW  WW  A    A  R   R   N   NN  II  N   NN  G    G                |
|           W    W  A    A  R    R  N    N  II  N    N   GGGG   !!!           |
|                                                                             |
|      For optimal performance we recommend to set                            |
|        NCORE= 4 - approx SQRT( number of cores)                             |
|      NCORE specifies how many cores store one orbital (NPAR=cpu/NCORE).     |
|      This setting can  greatly improve the performance of VASP for DFT.     |
|      The default,   NCORE=1            might be grossly inefficient         |
|      on modern multi-core architectures or massively parallel machines.     |
|      Do your own testing !!!!                                               |
|      Unfortunately you need to use the default for GW and RPA calculations. |
|      (for HF NCORE is supported but not extensively tested yet)             |
|                                                                             |
 ----------------------------------------------------------------------------- 

 LDA part: xc-table for Ceperly-Alder, standard interpolation
 POSCAR, INCAR and KPOINTS ok, starting setup
 FFT: planning ...
 WAVECAR not read
 WARNING: random wavefunctions but no delay for mixing, default for NELMDL
 entering main loop
       N       E                     dE             d eps       ncg     rms          rms(c)
DAV:   1    -0.334899294093E+01   -0.33490E+01   -0.72328E+02  3592   0.140E+02
DAV:   2    -0.421664854136E+01   -0.86766E+00   -0.81956E+00  4520   0.149E+01
DAV:   3    -0.421978583871E+01   -0.31373E-02   -0.31358E-02  3648   0.890E-01
DAV:   4    -0.421979024845E+01   -0.44097E-05   -0.44094E-05  5176   0.308E-02
DAV:   5    -0.421979025268E+01   -0.42329E-08   -0.45155E-08  3640   0.440E-04    0.948E-01
DAV:   6    -0.420169109872E+01    0.18099E-01   -0.23522E-03  4080   0.191E-01    0.583E-01
DAV:   7    -0.418992889304E+01    0.11762E-01   -0.62750E-03  4024   0.308E-01    0.241E-02
DAV:   8    -0.418992600788E+01    0.28852E-05   -0.12877E-05  4544   0.255E-02    0.603E-03
DAV:   9    -0.418992560294E+01    0.40494E-06   -0.24827E-07  4184   0.236E-03
   1 F= -.41899256E+01 E0= -.41895555E+01  d E =-.418993E+01
 curvature:   0.00 expect dE= 0.000E+00 dE for cont linesearch  0.000E+00
 trial: gam= 0.00000 g(F)=  0.504E-67 g(S)=  0.000E+00 ort = 0.000E+00 (trialstep = 0.100E+01)
 search vector abs. value=  0.100E-09
 reached required accuracy - stopping structural energy minimisation
