       N       E                     dE             d eps       ncg     rms          rms(c)
DAV:   1    -0.334899294093E+01   -0.33490E+01   -0.72328E+02  3592   0.140E+02
DAV:   2    -0.421664854136E+01   -0.86766E+00   -0.81956E+00  4520   0.149E+01
DAV:   3    -0.421978583871E+01   -0.31373E-02   -0.31358E-02  3648   0.890E-01
DAV:   4    -0.421979024845E+01   -0.44097E-05   -0.44094E-05  5176   0.308E-02
DAV:   5    -0.421979025268E+01   -0.42329E-08   -0.45155E-08  3640   0.440E-04    0.948E-01
DAV:   6    -0.420169109872E+01    0.18099E-01   -0.23522E-03  4080   0.191E-01    0.583E-01
DAV:   7    -0.418992889304E+01    0.11762E-01   -0.62750E-03  4024   0.308E-01    0.241E-02
DAV:   8    -0.418992600788E+01    0.28852E-05   -0.12877E-05  4544   0.255E-02    0.603E-03
DAV:   9    -0.418992560294E+01    0.40494E-06   -0.24827E-07  4184   0.236E-03
   1 F= -.41899256E+01 E0= -.41895555E+01  d E =-.418993E+01
