unknown system                          
           1
     0.000000    1.992048    1.992048
     1.992048    0.000000    1.992048
     1.992048    1.992048    0.000000
   Al
   1
Direct configuration=     1
   0.00000000  0.00000000  0.00000000
