 running on   28 total cores
 distrk:  each k-point on   28 cores,    1 groups
 distr:  one band on    1 cores,   28 groups
 using from now: INCAR     
 vasp.5.4.4.18Apr17-6-g9f103f2a35 (build Aug 15 2019 10:58:36) complex          
  
 POSCAR found type information on POSCAR  Al
 POSCAR found :  1 types and       1 ions
 scaLAPACK will be used

 ----------------------------------------------------------------------------- 
|                                                                             |
|           W    W    AA    RRRRR   N    N  II  N    N   GGGG   !!!           |
|           W    W   A  A   R    R  NN   N  II  NN   N  G    G  !!!           |
|           W    W  A    A  R    R  N N  N  II  N N  N  G       !!!           |
|           W WW W  AAAAAA  RRRRR   N  N N  II  N  N N  G  GGG   !            |
|           WW  WW  A    A  R   R   N   NN  II  N   NN  G    G                |
|           W    W  A    A  R    R  N    N  II  N    N   GGGG   !!!           |
|                                                                             |
|      For optimal performance we recommend to set                            |
|        NCORE= 4 - approx SQRT( number of cores)                             |
|      NCORE specifies how many cores store one orbital (NPAR=cpu/NCORE).     |
|      This setting can  greatly improve the performance of VASP for DFT.     |
|      The default,   NCORE=1            might be grossly inefficient         |
|      on modern multi-core architectures or massively parallel machines.     |
|      Do your own testing !!!!                                               |
|      Unfortunately you need to use the default for GW and RPA calculations. |
|      (for HF NCORE is supported but not extensively tested yet)             |
|                                                                             |
 ----------------------------------------------------------------------------- 

 LDA part: xc-table for Ceperly-Alder, standard interpolation
 POSCAR, INCAR and KPOINTS ok, starting setup
 FFT: planning ...
 WAVECAR not read
 WARNING: random wavefunctions but no delay for mixing, default for NELMDL
 entering main loop
       N       E                     dE             d eps       ncg     rms          rms(c)
DAV:   1    -0.412068460633E+01   -0.41207E+01   -0.69297E+02 14840   0.391E+01
DAV:   2    -0.421977633102E+01   -0.99092E-01   -0.99020E-01 14980   0.218E+00
DAV:   3    -0.421978969853E+01   -0.13368E-04   -0.13367E-04 14504   0.228E-02
DAV:   4    -0.421978969823E+01    0.30066E-09   -0.76280E-10 16912   0.469E-05
DAV:   5    -0.421978969878E+01   -0.54622E-09    0.15088E-13 14364   0.339E-08    0.948E-01
DAV:   6    -0.420169118132E+01    0.18099E-01   -0.23558E-03 12040   0.546E-02    0.584E-01
DAV:   7    -0.418992992296E+01    0.11761E-01   -0.62720E-03 13468   0.884E-02    0.242E-02
DAV:   8    -0.418992599354E+01    0.39294E-05   -0.15871E-06 12180   0.211E-03    0.597E-03
DAV:   9    -0.418992553787E+01    0.45567E-06   -0.18854E-07 17500   0.586E-04
   1 F= -.41899255E+01 E0= -.41895555E+01  d E =-.418993E+01
 curvature:   0.00 expect dE= 0.000E+00 dE for cont linesearch  0.000E+00
 trial: gam= 0.00000 g(F)=  0.733E-65 g(S)=  0.000E+00 ort = 0.000E+00 (trialstep = 0.100E+01)
 search vector abs. value=  0.100E-09
 reached required accuracy - stopping structural energy minimisation
