ITEM: TIMESTEP
0
ITEM: NUMBER OF ATOMS
421
ITEM: BOX BOUNDS pp ss pp
0.0000000000000000e+00 2.2653923264628304e+01
2.1879574711865565e-01 2.0412935883831739e+01
-2.8317404080785380e-01 2.8317404080785380e-01
ITEM: ATOMS id type xs ys zs
221 1 0.499997 0.47495 0.5
2 2 0.0249978 0.0477664 0.5
3 2 0.0499993 0.00010203 0.5
4 2 0.075 0.0477657 0.5
5 2 0.100001 0.00010203 0.5
6 2 0.125002 0.0477664 0.5
7 2 0.150002 0.000103807 0.5
8 2 0.175004 0.0477682 0.5
9 2 0.200003 0.000107002 0.5
10 2 0.225005 0.0477706 0.5
11 2 0.250004 0.000111021 0.5
12 2 0.275005 0.0477731 0.5
13 2 0.300004 0.000115226 0.5
14 2 0.325005 0.0477753 0.5
15 2 0.350004 0.000119087 0.5
16 2 0.375004 0.047777 0.5
17 2 0.400004 0.000122264 0.5
18 2 0.425003 0.0477783 0.5
19 2 0.450003 0.00012461 0.5
20 2 0.475002 0.0477793 0.5
406 1 0.250001 0.949803 0.5
42 1 0.0249972 0.142703 0.5
43 2 0.0499985 0.0952344 0.5
44 1 0.075 0.142704 0.5
45 2 0.100002 0.0952344 0.5
46 1 0.125003 0.142703 0.5
47 2 0.150004 0.0952343 0.5
48 1 0.175005 0.142701 0.5
49 2 0.200006 0.0952344 0.5
50 1 0.225007 0.1427 0.5
51 2 0.250007 0.0952348 0.5
52 1 0.275007 0.142699 0.5
53 2 0.300006 0.0952354 0.5
54 1 0.325007 0.142699 0.5
55 2 0.350005 0.095236 0.5
56 1 0.375006 0.142699 0.5
57 2 0.400004 0.0952364 0.5
58 1 0.425004 0.142699 0.5
59 2 0.450003 0.0952368 0.5
60 1 0.475003 0.142698 0.5
405 1 0.199986 0.949818 0.5
82 1 0.0249986 0.237642 0.5
83 1 0.049999 0.190177 0.5
84 1 0.075 0.237643 0.5
85 1 0.100001 0.190177 0.5
86 1 0.125001 0.237642 0.5
87 1 0.150003 0.190176 0.5
88 1 0.175003 0.23764 0.5
89 1 0.200005 0.190173 0.5
90 1 0.225006 0.237637 0.5
91 1 0.250007 0.19017 0.5
92 1 0.275008 0.237633 0.5
93 1 0.300008 0.190168 0.5
94 1 0.325009 0.237631 0.5
95 1 0.350007 0.190167 0.5
96 1 0.375008 0.23763 0.5
97 1 0.400006 0.190168 0.5
98 1 0.425007 0.23763 0.5
99 1 0.450004 0.190168 0.5
100 1 0.475005 0.23763 0.5
404 1 0.14998 0.949791 0.5
122 1 0.024999 0.332563 0.5
123 1 0.0499995 0.285101 0.5
124 1 0.075 0.332564 0.5
125 1 0.100001 0.285101 0.5
126 1 0.125001 0.332563 0.5
127 1 0.150002 0.2851 0.5
128 1 0.175002 0.332562 0.5
129 1 0.200004 0.285097 0.5
130 1 0.225005 0.332559 0.5
131 1 0.250006 0.285095 0.5
132 1 0.275007 0.332556 0.5
133 1 0.300009 0.285091 0.5
134 1 0.325011 0.332553 0.5
135 1 0.35001 0.285089 0.5
136 1 0.375012 0.33255 0.5
137 1 0.40001 0.285088 0.5
138 1 0.425013 0.33255 0.5
139 1 0.450008 0.285088 0.5
140 1 0.475011 0.332551 0.5
403 1 0.0999905 0.94976 0.5
162 1 0.024999 0.427492 0.5
163 1 0.0499993 0.380025 0.5
164 1 0.075 0.427493 0.5
165 1 0.100001 0.380025 0.5
166 1 0.125001 0.427492 0.5
167 1 0.150001 0.380025 0.5
168 1 0.175002 0.427491 0.5
169 1 0.200003 0.380022 0.5
170 1 0.225005 0.427489 0.5
171 1 0.250006 0.38002 0.5
172 1 0.275008 0.427486 0.5
173 1 0.300009 0.380017 0.5
174 1 0.325012 0.427484 0.5
175 1 0.350014 0.380015 0.5
176 1 0.375013 0.427482 0.5
177 1 0.400015 0.380014 0.5
178 1 0.425009 0.427486 0.5
179 1 0.450013 0.380016 0.5
180 1 0.475002 0.427489 0.5
410 3 0.450049 0.949782 0.5
202 1 0.0249985 0.522414 0.5
203 1 0.0499994 0.474954 0.5
204 1 0.075 0.522416 0.5
205 1 0.100001 0.474954 0.5
206 1 0.125002 0.522414 0.5
207 1 0.150002 0.474953 0.5
208 1 0.175004 0.522414 0.5
209 1 0.200004 0.474952 0.5
210 1 0.225005 0.522413 0.5
211 1 0.250007 0.47495 0.5
212 1 0.275002 0.522413 0.5
213 1 0.300008 0.474949 0.5
214 1 0.324995 0.522416 0.5
215 1 0.350004 0.474949 0.5
216 1 0.374989 0.522419 0.5
217 1 0.399999 0.474953 0.5
218 1 0.424989 0.522414 0.5
219 1 0.449996 0.474953 0.5
220 1 0.474993 0.522409 0.5
402 1 0.0500095 0.94976 0.5
242 1 0.0249956 0.61734 0.5
243 1 0.0499984 0.569881 0.5
244 1 0.075 0.617341 0.5
245 1 0.100002 0.569881 0.5
246 1 0.125004 0.61734 0.5
247 1 0.150005 0.569881 0.5
248 1 0.175003 0.617342 0.5
249 1 0.200003 0.569881 0.5
250 1 0.224995 0.617348 0.5
251 1 0.249997 0.569884 0.5
252 1 0.274984 0.617355 0.5
253 1 0.299988 0.569889 0.5
254 1 0.324976 0.617355 0.5
255 1 0.349981 0.569889 0.5
256 1 0.374979 0.61735 0.5
257 1 0.399983 0.569884 0.5
258 1 0.424985 0.61734 0.5
259 1 0.449988 0.569876 0.5
260 1 0.474991 0.617334 0.5
409 1 0.400035 0.949761 0.5
282 1 0.024998 0.712257 0.5
283 1 0.0499969 0.664799 0.5
284 1 0.075 0.712253 0.5
285 1 0.100003 0.664799 0.5
286 1 0.125002 0.712257 0.5
287 1 0.150003 0.664803 0.5
288 1 0.174995 0.71227 0.5
289 1 0.199995 0.664813 0.5
290 1 0.224983 0.712282 0.5
291 1 0.249982 0.664821 0.5
292 1 0.274976 0.712285 0.5
293 1 0.299974 0.664822 0.5
294 1 0.324978 0.712279 0.5
295 1 0.349977 0.664817 0.5
296 1 0.374984 0.71227 0.5
297 1 0.399983 0.664807 0.5
298 1 0.42499 0.712264 0.5
299 1 0.449989 0.664802 0.5
300 1 0.474995 0.712259 0.5
321 1 3.64377e-06 0.759729 0.5
322 1 0.025002 0.80719 0.5
323 1 0.0499996 0.759714 0.5
324 1 0.075 0.807179 0.5
325 1 0.1 0.759714 0.5
326 1 0.124998 0.80719 0.5
327 1 0.149996 0.759729 0.5
328 1 0.174989 0.807212 0.5
329 1 0.199986 0.759746 0.5
330 1 0.224981 0.807223 0.5
331 1 0.249978 0.759752 0.5
332 1 0.274982 0.80722 0.5
333 1 0.29998 0.759747 0.5
334 1 0.32499 0.807208 0.5
335 1 0.349986 0.759738 0.5
336 1 0.375003 0.807201 0.5
337 1 0.399995 0.759732 0.5
338 1 0.425016 0.807198 0.5
339 1 0.450003 0.759723 0.5
340 1 0.475017 0.80719 0.5
408 1 0.350024 0.949768 0.5
362 1 0.0250069 0.902114 0.5
363 1 0.0500014 0.854643 0.5
364 1 0.075 0.902097 0.5
365 1 0.0999986 0.854643 0.5
366 1 0.124993 0.902114 0.5
367 1 0.149994 0.854668 0.5
368 1 0.174988 0.902146 0.5
369 1 0.199985 0.854688 0.5
370 1 0.224986 0.902155 0.5
371 1 0.249982 0.854686 0.5
372 1 0.274994 0.902135 0.5
373 1 0.299993 0.854673 0.5
374 1 0.32501 0.902118 0.5
375 1 0.350007 0.854661 0.5
376 1 0.375023 0.902111 0.5
377 1 0.400022 0.854655 0.5
378 1 0.425037 0.902115 0.5
379 3 0.450032 0.854662 0.5
380 3 0.475046 0.902151 0.5
407 1 0.300014 0.949775 0.5
261 1 0.499993 0.569871 0.5
401 1 2.0232e-05 0.949791 0.5
361 1 6.38311e-06 0.854668 0.5
301 1 0.499992 0.664795 0.5
21 2 0.500002 0.000126115 0.5
22 2 0.525001 0.04778 0.5
23 2 0.550001 0.00012684 0.5
24 2 0.575 0.0477802 0.5
25 2 0.599999 0.00012684 0.5
26 2 0.624999 0.04778 0.5
27 2 0.649998 0.000126115 0.5
28 2 0.674998 0.0477793 0.5
29 2 0.699997 0.00012461 0.5
30 2 0.724997 0.0477783 0.5
31 2 0.749996 0.000122264 0.5
32 2 0.774996 0.047777 0.5
33 2 0.799996 0.000119087 0.5
34 2 0.824995 0.0477753 0.5
35 2 0.849996 0.000115226 0.5
36 2 0.874995 0.0477731 0.5
37 2 0.899996 0.000111021 0.5
38 2 0.924995 0.0477706 0.5
39 2 0.949997 0.000107002 0.5
40 2 0.974996 0.0477682 0.5
61 2 0.500002 0.0952371 0.5
62 1 0.525001 0.142698 0.5
63 2 0.550001 0.0952372 0.5
64 1 0.575 0.142698 0.5
65 2 0.599999 0.0952372 0.5
66 1 0.624999 0.142698 0.5
67 2 0.649998 0.0952371 0.5
68 1 0.674997 0.142698 0.5
69 2 0.699997 0.0952368 0.5
70 1 0.724996 0.142699 0.5
71 2 0.749996 0.0952364 0.5
72 1 0.774994 0.142699 0.5
73 2 0.799995 0.095236 0.5
74 1 0.824993 0.142699 0.5
75 2 0.849994 0.0952354 0.5
76 1 0.874993 0.142699 0.5
77 2 0.899993 0.0952348 0.5
78 1 0.924993 0.1427 0.5
79 2 0.949994 0.0952344 0.5
80 1 0.974995 0.142701 0.5
101 1 0.500002 0.190168 0.5
102 1 0.525002 0.237629 0.5
103 1 0.550001 0.190168 0.5
104 1 0.575 0.237629 0.5
105 1 0.599999 0.190168 0.5
106 1 0.624998 0.237629 0.5
107 1 0.649998 0.190168 0.5
108 1 0.674995 0.23763 0.5
109 1 0.699996 0.190168 0.5
110 1 0.724993 0.23763 0.5
111 1 0.749994 0.190168 0.5
112 1 0.774992 0.23763 0.5
113 1 0.799993 0.190167 0.5
114 1 0.824991 0.237631 0.5
115 1 0.849992 0.190168 0.5
116 1 0.874992 0.237633 0.5
117 1 0.899993 0.19017 0.5
118 1 0.924994 0.237637 0.5
119 1 0.949995 0.190173 0.5
120 1 0.974997 0.23764 0.5
420 1 0.950014 0.949818 0.5
142 1 0.525006 0.332554 0.5
143 1 0.550003 0.285088 0.5
144 1 0.575 0.332557 0.5
145 1 0.599997 0.285088 0.5
146 1 0.624994 0.332554 0.5
147 1 0.649994 0.285088 0.5
148 1 0.674989 0.332551 0.5
149 1 0.699992 0.285088 0.5
150 1 0.724987 0.33255 0.5
151 1 0.74999 0.285088 0.5
152 1 0.774988 0.33255 0.5
153 1 0.79999 0.285089 0.5
154 1 0.824989 0.332553 0.5
155 1 0.849991 0.285091 0.5
156 1 0.874993 0.332556 0.5
157 1 0.899994 0.285095 0.5
158 1 0.924995 0.332559 0.5
159 1 0.949996 0.285097 0.5
160 1 0.974998 0.332562 0.5
419 1 0.899999 0.949803 0.5
182 1 0.525001 0.42749 0.5
183 1 0.550001 0.380022 0.5
184 1 0.575 0.427489 0.5
185 1 0.599999 0.380022 0.5
186 1 0.624999 0.42749 0.5
187 1 0.649993 0.380021 0.5
188 1 0.674998 0.427489 0.5
189 1 0.699987 0.380016 0.5
190 1 0.724991 0.427486 0.5
191 1 0.749985 0.380014 0.5
192 1 0.774987 0.427482 0.5
193 1 0.799986 0.380015 0.5
194 1 0.824988 0.427484 0.5
195 1 0.849991 0.380017 0.5
196 1 0.874992 0.427486 0.5
197 1 0.899994 0.38002 0.5
198 1 0.924995 0.427489 0.5
199 1 0.949997 0.380022 0.5
200 1 0.974998 0.427491 0.5
418 1 0.849986 0.949775 0.5
222 1 0.524995 0.522406 0.5
223 1 0.549999 0.47495 0.5
224 1 0.575 0.522404 0.5
225 1 0.600001 0.47495 0.5
226 1 0.625005 0.522406 0.5
227 1 0.650003 0.47495 0.5
228 1 0.675007 0.522409 0.5
229 1 0.700004 0.474953 0.5
230 1 0.725011 0.522414 0.5
231 1 0.750001 0.474953 0.5
232 1 0.775011 0.522419 0.5
233 1 0.799996 0.474949 0.5
234 1 0.825005 0.522416 0.5
235 1 0.849992 0.474949 0.5
236 1 0.874998 0.522413 0.5
237 1 0.899993 0.47495 0.5
238 1 0.924995 0.522413 0.5
239 1 0.949996 0.474952 0.5
240 1 0.974996 0.522414 0.5
281 1 0.999997 0.664803 0.5
262 1 0.524994 0.617332 0.5
263 1 0.549998 0.56987 0.5
264 1 0.575 0.617331 0.5
265 1 0.600002 0.56987 0.5
266 1 0.625006 0.617332 0.5
267 1 0.650007 0.569871 0.5
268 1 0.675009 0.617334 0.5
269 1 0.700012 0.569876 0.5
270 1 0.725015 0.61734 0.5
271 1 0.750017 0.569884 0.5
272 1 0.775021 0.61735 0.5
273 1 0.800019 0.569889 0.5
274 1 0.825024 0.617355 0.5
275 1 0.850012 0.569889 0.5
276 1 0.875016 0.617355 0.5
277 1 0.900003 0.569884 0.5
278 1 0.925005 0.617348 0.5
279 1 0.949997 0.569881 0.5
280 1 0.974997 0.617342 0.5
411 3 0.500093 0.949861 0.5
302 1 0.525 0.712253 0.5
303 1 0.549997 0.66479 0.5
304 1 0.575 0.712248 0.5
305 1 0.600003 0.66479 0.5
306 1 0.625 0.712253 0.5
307 1 0.650008 0.664795 0.5
308 1 0.675005 0.712259 0.5
309 1 0.700011 0.664802 0.5
310 1 0.72501 0.712264 0.5
311 1 0.750017 0.664807 0.5
312 1 0.775016 0.71227 0.5
313 1 0.800023 0.664817 0.5
314 1 0.825022 0.712279 0.5
315 1 0.850026 0.664822 0.5
316 1 0.875024 0.712285 0.5
317 1 0.900018 0.664821 0.5
318 1 0.925017 0.712282 0.5
319 1 0.950005 0.664813 0.5
320 1 0.975005 0.71227 0.5
417 1 0.799976 0.949768 0.5
342 1 0.525012 0.807192 0.5
343 1 0.550004 0.759713 0.5
344 1 0.575 0.807197 0.5
345 1 0.599996 0.759713 0.5
346 1 0.624988 0.807192 0.5
347 1 0.649991 0.759715 0.5
348 1 0.674983 0.80719 0.5
349 1 0.699997 0.759723 0.5
350 1 0.724984 0.807198 0.5
351 1 0.750005 0.759732 0.5
352 1 0.774997 0.807201 0.5
353 1 0.800014 0.759738 0.5
354 1 0.82501 0.807208 0.5
355 1 0.85002 0.759747 0.5
356 1 0.875018 0.80722 0.5
357 1 0.900022 0.759752 0.5
358 1 0.925019 0.807223 0.5
359 1 0.950014 0.759746 0.5
360 1 0.975011 0.807212 0.5
381 3 0.500017 0.854659 0.5
382 3 0.525009 0.90213 0.5
383 3 0.550006 0.854664 0.5
384 3 0.575 0.902146 0.5
385 3 0.599994 0.854664 0.5
386 3 0.624991 0.90213 0.5
387 3 0.649983 0.854659 0.5
388 3 0.674954 0.902151 0.5
389 3 0.699968 0.854662 0.5
390 3 0.724963 0.902115 0.5
391 3 0.749978 0.854655 0.5
392 3 0.774977 0.902111 0.5
393 1 0.799993 0.854661 0.5
394 1 0.82499 0.902118 0.5
395 1 0.850007 0.854673 0.5
396 1 0.875006 0.902135 0.5
397 1 0.900018 0.854686 0.5
398 1 0.925014 0.902155 0.5
399 1 0.950015 0.854688 0.5
400 1 0.975012 0.902146 0.5
421 3 0.590634 0.999898 0.5
412 3 0.549989 0.949678 0.5
413 3 0.600011 0.949678 0.5
414 3 0.649907 0.949861 0.5
415 3 0.699951 0.949782 0.5
416 3 0.749965 0.949761 0.5
201 1 0.999998 0.474953 0.5
1 2 0.999998 0.000103807 0.5
341 1 0.500009 0.759715 0.5
41 2 0.999996 0.0952343 0.5
181 1 0.500007 0.380021 0.5
141 1 0.500006 0.285088 0.5
81 1 0.999997 0.190176 0.5
121 1 0.999998 0.2851 0.5
161 1 0.999999 0.380025 0.5
241 1 0.999995 0.569881 0.5
ITEM: TIMESTEP
78
ITEM: NUMBER OF ATOMS
421
ITEM: BOX BOUNDS pp ss pp
0.0000000000000000e+00 2.2653923264628304e+01
2.1879574711865565e-01 2.0412935883831739e+01
-2.8317404080785380e-01 2.8317404080785380e-01
ITEM: ATOMS id type xs ys zs
221 1 0.500015 0.474929 0.5
2 2 0.0249978 0.0477664 0.5
3 2 0.0499993 0.00010203 0.5
4 2 0.075 0.0477657 0.5
5 2 0.100001 0.00010203 0.5
6 2 0.125002 0.0477664 0.5
7 2 0.150002 0.000103807 0.5
8 2 0.175004 0.0477682 0.5
9 2 0.200003 0.000107002 0.5
10 2 0.225005 0.0477706 0.5
11 2 0.250004 0.000111021 0.5
12 2 0.275005 0.0477731 0.5
13 2 0.300004 0.000115226 0.5
14 2 0.325005 0.0477753 0.5
15 2 0.350004 0.000119087 0.5
16 2 0.375004 0.047777 0.5
17 2 0.400004 0.000122264 0.5
18 2 0.425003 0.0477783 0.5
19 2 0.450003 0.00012461 0.5
20 2 0.475002 0.0477793 0.5
406 1 0.250166 0.949803 0.5
42 1 0.0250063 0.142695 0.5
43 2 0.0499985 0.0952344 0.5
44 1 0.0750078 0.142696 0.5
45 2 0.100002 0.0952344 0.5
46 1 0.125009 0.142697 0.5
47 2 0.150004 0.0952343 0.5
48 1 0.175009 0.142697 0.5
49 2 0.200006 0.0952344 0.5
50 1 0.225009 0.142698 0.5
51 2 0.250007 0.0952348 0.5
52 1 0.275008 0.142699 0.5
53 2 0.300006 0.0952354 0.5
54 1 0.325006 0.142699 0.5
55 2 0.350005 0.095236 0.5
56 1 0.375004 0.142699 0.5
57 2 0.400004 0.0952364 0.5
58 1 0.425002 0.142699 0.5
59 2 0.450003 0.0952368 0.5
60 1 0.475001 0.142699 0.5
405 1 0.200136 0.94978 0.5
82 1 0.0250228 0.237619 0.5
83 1 0.050015 0.190158 0.5
84 1 0.0750226 0.237621 0.5
85 1 0.100015 0.190159 0.5
86 1 0.125021 0.237624 0.5
87 1 0.150015 0.190161 0.5
88 1 0.175019 0.237626 0.5
89 1 0.200013 0.190162 0.5
90 1 0.225016 0.237628 0.5
91 1 0.250011 0.190163 0.5
92 1 0.275013 0.237629 0.5
93 1 0.300008 0.190163 0.5
94 1 0.325009 0.237628 0.5
95 1 0.350006 0.190163 0.5
96 1 0.375005 0.237627 0.5
97 1 0.400003 0.190162 0.5
98 1 0.425003 0.237625 0.5
99 1 0.450001 0.190161 0.5
100 1 0.475001 0.237623 0.5
404 1 0.150113 0.949761 0.5
122 1 0.0250394 0.332543 0.5
123 1 0.0500308 0.285083 0.5
124 1 0.0750385 0.332549 0.5
125 1 0.10003 0.285087 0.5
126 1 0.125036 0.332554 0.5
127 1 0.150027 0.285091 0.5
128 1 0.175032 0.332559 0.5
129 1 0.200023 0.285093 0.5
130 1 0.225028 0.332561 0.5
131 1 0.250019 0.285095 0.5
132 1 0.275022 0.332562 0.5
133 1 0.300014 0.285095 0.5
134 1 0.325016 0.332561 0.5
135 1 0.35001 0.285093 0.5
136 1 0.375011 0.332557 0.5
137 1 0.400006 0.28509 0.5
138 1 0.425007 0.332553 0.5
139 1 0.450003 0.285087 0.5
140 1 0.475004 0.332547 0.5
403 1 0.100096 0.949743 0.5
162 1 0.025057 0.427467 0.5
163 1 0.0500478 0.380009 0.5
164 1 0.0750561 0.427477 0.5
165 1 0.100046 0.380017 0.5
166 1 0.125054 0.427486 0.5
167 1 0.150043 0.380023 0.5
168 1 0.17505 0.427494 0.5
169 1 0.200038 0.380028 0.5
170 1 0.225044 0.427498 0.5
171 1 0.250032 0.38003 0.5
172 1 0.275038 0.4275 0.5
173 1 0.300026 0.38003 0.5
174 1 0.32503 0.427498 0.5
175 1 0.350019 0.380027 0.5
176 1 0.375022 0.427492 0.5
177 1 0.400013 0.380021 0.5
178 1 0.425015 0.427483 0.5
179 1 0.450008 0.380014 0.5
180 1 0.475011 0.427473 0.5
410 3 0.450456 0.949938 0.5
202 1 0.0250747 0.522391 0.5
203 1 0.0500658 0.474935 0.5
204 1 0.0750747 0.522405 0.5
205 1 0.100065 0.474947 0.5
206 1 0.125074 0.522419 0.5
207 1 0.150062 0.474958 0.5
208 1 0.175072 0.52243 0.5
209 1 0.200058 0.474966 0.5
210 1 0.225068 0.522439 0.5
211 1 0.250052 0.47497 0.5
212 1 0.275061 0.522443 0.5
213 1 0.300044 0.47497 0.5
214 1 0.325052 0.522441 0.5
215 1 0.350035 0.474966 0.5
216 1 0.375042 0.522433 0.5
217 1 0.400026 0.474956 0.5
218 1 0.425032 0.522419 0.5
219 1 0.450019 0.474943 0.5
220 1 0.475024 0.522401 0.5
402 1 0.0500832 0.949727 0.5
242 1 0.0250895 0.617314 0.5
243 1 0.0500831 0.569861 0.5
244 1 0.0750916 0.617331 0.5
245 1 0.100084 0.569877 0.5
246 1 0.125094 0.617349 0.5
247 1 0.150084 0.569891 0.5
248 1 0.175096 0.617365 0.5
249 1 0.200083 0.569904 0.5
250 1 0.225097 0.617379 0.5
251 1 0.25008 0.569913 0.5
252 1 0.275095 0.617389 0.5
253 1 0.300073 0.569917 0.5
254 1 0.325089 0.617393 0.5
255 1 0.350063 0.569913 0.5
256 1 0.375077 0.617386 0.5
257 1 0.40005 0.5699 0.5
258 1 0.425061 0.617366 0.5
259 1 0.450038 0.569879 0.5
260 1 0.475046 0.617335 0.5
409 1 0.400339 0.949895 0.5
282 1 0.025098 0.712234 0.5
283 1 0.0500964 0.664784 0.5
284 1 0.0751033 0.712253 0.5
285 1 0.100101 0.664802 0.5
286 1 0.125111 0.712273 0.5
287 1 0.150106 0.664821 0.5
288 1 0.175119 0.712293 0.5
289 1 0.200111 0.664839 0.5
290 1 0.225128 0.712313 0.5
291 1 0.250114 0.664855 0.5
292 1 0.275136 0.712332 0.5
293 1 0.300114 0.664867 0.5
294 1 0.32514 0.712346 0.5
295 1 0.350109 0.66487 0.5
296 1 0.375136 0.712351 0.5
297 1 0.400096 0.66486 0.5
298 1 0.425121 0.712338 0.5
299 1 0.450074 0.66483 0.5
300 1 0.47509 0.712291 0.5
321 1 9.66047e-05 0.759683 0.5
322 1 0.0250974 0.807149 0.5
323 1 0.0501021 0.759702 0.5
324 1 0.075106 0.807168 0.5
325 1 0.10011 0.759721 0.5
326 1 0.125118 0.807188 0.5
327 1 0.150121 0.759742 0.5
328 1 0.175133 0.80721 0.5
329 1 0.200135 0.759764 0.5
330 1 0.225152 0.807234 0.5
331 1 0.250149 0.759787 0.5
332 1 0.275174 0.807259 0.5
333 1 0.300163 0.759809 0.5
334 1 0.325197 0.807286 0.5
335 1 0.350173 0.759828 0.5
336 1 0.375217 0.807312 0.5
337 1 0.400174 0.759837 0.5
338 1 0.425227 0.807329 0.5
339 1 0.450156 0.759823 0.5
340 1 0.475211 0.807323 0.5
408 1 0.350262 0.949858 0.5
362 1 0.0250868 0.902063 0.5
363 1 0.0500978 0.854614 0.5
364 1 0.0750974 0.902079 0.5
365 1 0.10011 0.854632 0.5
366 1 0.125112 0.902097 0.5
367 1 0.150125 0.854653 0.5
368 1 0.175132 0.902118 0.5
369 1 0.200146 0.854675 0.5
370 1 0.225157 0.90214 0.5
371 1 0.250171 0.854701 0.5
372 1 0.27519 0.902167 0.5
373 1 0.300202 0.85473 0.5
374 1 0.325232 0.902197 0.5
375 1 0.350237 0.854762 0.5
376 1 0.375286 0.902234 0.5
377 1 0.400274 0.854797 0.5
378 1 0.425355 0.902279 0.5
379 3 0.450301 0.85483 0.5
380 3 0.475444 0.902357 0.5
407 1 0.300207 0.949828 0.5
261 1 0.50003 0.569854 0.5
401 1 7.41957e-05 0.949712 0.5
361 1 8.97251e-05 0.854597 0.5
301 1 0.500056 0.664786 0.5
21 2 0.500002 0.000126115 0.5
22 2 0.525001 0.04778 0.5
23 2 0.550001 0.00012684 0.5
24 2 0.575 0.0477802 0.5
25 2 0.599999 0.00012684 0.5
26 2 0.624999 0.04778 0.5
27 2 0.649998 0.000126115 0.5
28 2 0.674998 0.0477793 0.5
29 2 0.699997 0.00012461 0.5
30 2 0.724997 0.0477783 0.5
31 2 0.749996 0.000122264 0.5
32 2 0.774996 0.047777 0.5
33 2 0.799996 0.000119087 0.5
34 2 0.824995 0.0477753 0.5
35 2 0.849996 0.000115226 0.5
36 2 0.874995 0.0477731 0.5
37 2 0.899996 0.000111021 0.5
38 2 0.924995 0.0477706 0.5
39 2 0.949997 0.000107002 0.5
40 2 0.974996 0.0477682 0.5
61 2 0.500002 0.0952371 0.5
62 1 0.525 0.142698 0.5
63 2 0.550001 0.0952372 0.5
64 1 0.575 0.142698 0.5
65 2 0.599999 0.0952372 0.5
66 1 0.624999 0.142697 0.5
67 2 0.649998 0.0952371 0.5
68 1 0.675 0.142697 0.5
69 2 0.699997 0.0952368 0.5
70 1 0.725 0.142696 0.5
71 2 0.749996 0.0952364 0.5
72 1 0.775001 0.142696 0.5
73 2 0.799995 0.095236 0.5
74 1 0.825001 0.142695 0.5
75 2 0.849994 0.0952354 0.5
76 1 0.875002 0.142695 0.5
77 2 0.899993 0.0952348 0.5
78 1 0.925003 0.142695 0.5
79 2 0.949994 0.0952344 0.5
80 1 0.975005 0.142695 0.5
101 1 0.5 0.19016 0.5
102 1 0.525 0.23762 0.5
103 1 0.55 0.190159 0.5
104 1 0.575001 0.237618 0.5
105 1 0.6 0.190157 0.5
106 1 0.625002 0.237616 0.5
107 1 0.650001 0.190156 0.5
108 1 0.675004 0.237614 0.5
109 1 0.700003 0.190155 0.5
110 1 0.725008 0.237612 0.5
111 1 0.750005 0.190155 0.5
112 1 0.775011 0.237612 0.5
113 1 0.800007 0.190154 0.5
114 1 0.825014 0.237612 0.5
115 1 0.850009 0.190154 0.5
116 1 0.875018 0.237613 0.5
117 1 0.900011 0.190155 0.5
118 1 0.92502 0.237614 0.5
119 1 0.950013 0.190155 0.5
120 1 0.975022 0.237616 0.5
420 1 0.950068 0.949698 0.5
142 1 0.525003 0.332541 0.5
143 1 0.550001 0.285079 0.5
144 1 0.575004 0.332536 0.5
145 1 0.600003 0.285075 0.5
146 1 0.625007 0.33253 0.5
147 1 0.650006 0.285072 0.5
148 1 0.675012 0.332527 0.5
149 1 0.70001 0.28507 0.5
150 1 0.725017 0.332524 0.5
151 1 0.750014 0.285068 0.5
152 1 0.775023 0.332523 0.5
153 1 0.800019 0.285068 0.5
154 1 0.825028 0.332524 0.5
155 1 0.850023 0.285069 0.5
156 1 0.875033 0.332527 0.5
157 1 0.900027 0.285072 0.5
158 1 0.925037 0.332532 0.5
159 1 0.95003 0.285075 0.5
160 1 0.975039 0.332537 0.5
419 1 0.900064 0.949684 0.5
182 1 0.525009 0.427461 0.5
183 1 0.550006 0.379997 0.5
184 1 0.575011 0.427451 0.5
185 1 0.600009 0.37999 0.5
186 1 0.625016 0.427441 0.5
187 1 0.650013 0.379984 0.5
188 1 0.675022 0.427434 0.5
189 1 0.70002 0.379979 0.5
190 1 0.72503 0.42743 0.5
191 1 0.750026 0.379977 0.5
192 1 0.775038 0.42743 0.5
193 1 0.800033 0.379978 0.5
194 1 0.825045 0.427433 0.5
195 1 0.850039 0.379981 0.5
196 1 0.875051 0.427439 0.5
197 1 0.900044 0.379986 0.5
198 1 0.925054 0.427447 0.5
199 1 0.950047 0.379993 0.5
200 1 0.975056 0.427457 0.5
418 1 0.850062 0.94967 0.5
222 1 0.525021 0.522381 0.5
223 1 0.550015 0.474914 0.5
224 1 0.575022 0.522362 0.5
225 1 0.600018 0.4749 0.5
226 1 0.625029 0.522346 0.5
227 1 0.650025 0.47489 0.5
228 1 0.675038 0.522334 0.5
229 1 0.700034 0.474882 0.5
230 1 0.725049 0.522329 0.5
231 1 0.750043 0.47488 0.5
232 1 0.775059 0.522329 0.5
233 1 0.800052 0.474882 0.5
234 1 0.825066 0.522336 0.5
235 1 0.850058 0.474889 0.5
236 1 0.87507 0.522348 0.5
237 1 0.900062 0.474899 0.5
238 1 0.925073 0.522362 0.5
239 1 0.950065 0.47491 0.5
240 1 0.975074 0.522376 0.5
281 1 1.00009 0.664765 0.5
262 1 0.525038 0.617301 0.5
263 1 0.550028 0.569828 0.5
264 1 0.57504 0.617267 0.5
265 1 0.600033 0.569804 0.5
266 1 0.625049 0.61724 0.5
267 1 0.650043 0.569787 0.5
268 1 0.675064 0.617222 0.5
269 1 0.700056 0.569776 0.5
270 1 0.725078 0.617216 0.5
271 1 0.750067 0.569774 0.5
272 1 0.775087 0.617223 0.5
273 1 0.800076 0.569781 0.5
274 1 0.82509 0.617239 0.5
275 1 0.850079 0.569795 0.5
276 1 0.875089 0.617258 0.5
277 1 0.900081 0.569811 0.5
278 1 0.925088 0.617277 0.5
279 1 0.950082 0.569828 0.5
280 1 0.975088 0.617296 0.5
411 3 0.500698 0.950086 0.5
302 1 0.525067 0.712226 0.5
303 1 0.550049 0.664738 0.5
304 1 0.575064 0.712162 0.5
305 1 0.600056 0.664697 0.5
306 1 0.625081 0.712113 0.5
307 1 0.650072 0.664667 0.5
308 1 0.675106 0.712086 0.5
309 1 0.700091 0.664654 0.5
310 1 0.725122 0.712089 0.5
311 1 0.750102 0.66466 0.5
312 1 0.775116 0.712121 0.5
313 1 0.800102 0.664681 0.5
314 1 0.825107 0.71215 0.5
315 1 0.850098 0.664704 0.5
316 1 0.875099 0.712175 0.5
317 1 0.900094 0.664726 0.5
318 1 0.925096 0.712195 0.5
319 1 0.950093 0.664746 0.5
320 1 0.975095 0.712215 0.5
417 1 0.800061 0.949656 0.5
342 1 0.525124 0.807183 0.5
343 1 0.55008 0.759648 0.5
344 1 0.575099 0.807034 0.5
345 1 0.600089 0.759564 0.5
346 1 0.62514 0.806927 0.5
347 1 0.650123 0.75951 0.5
348 1 0.675194 0.806893 0.5
349 1 0.70015 0.759505 0.5
350 1 0.725153 0.80699 0.5
351 1 0.750134 0.759557 0.5
352 1 0.77512 0.807046 0.5
353 1 0.800115 0.759597 0.5
354 1 0.825101 0.807076 0.5
355 1 0.850102 0.759624 0.5
356 1 0.875093 0.807096 0.5
357 1 0.900096 0.759645 0.5
358 1 0.925091 0.807114 0.5
359 1 0.950094 0.759664 0.5
360 1 0.975092 0.807132 0.5
381 3 0.500303 0.854865 0.5
382 3 0.525536 0.902537 0.5
383 3 0.550132 0.854576 0.5
384 3 0.575164 0.901837 0.5
385 3 0.600147 0.854346 0.5
386 3 0.625448 0.901416 0.5
387 3 0.65027 0.854223 0.5
388 3 0.67519 0.901877 0.5
389 3 0.700166 0.854426 0.5
390 3 0.725106 0.901955 0.5
391 3 0.750112 0.854498 0.5
392 3 0.775075 0.90199 0.5
393 1 0.800093 0.85453 0.5
394 1 0.825074 0.902002 0.5
395 1 0.850086 0.854548 0.5
396 1 0.875074 0.902017 0.5
397 1 0.900084 0.854564 0.5
398 1 0.925076 0.902032 0.5
399 1 0.950085 0.85458 0.5
400 1 0.97508 0.902047 0.5
421 3 0.590541 1.00146 0.5
412 3 0.551204 0.950762 0.5
413 3 0.600732 0.948344 0.5
414 3 0.650148 0.94959 0.5
415 3 0.700082 0.949612 0.5
416 3 0.750058 0.949649 0.5
201 1 1.00007 0.474923 0.5
1 2 0.999998 0.000103807 0.5
341 1 0.500108 0.759745 0.5
41 2 0.999996 0.0952343 0.5
181 1 0.500006 0.380006 0.5
141 1 0.500001 0.285083 0.5
81 1 1.00001 0.190156 0.5
121 1 1.00003 0.285079 0.5
161 1 1.00005 0.380001 0.5
241 1 1.00008 0.569844 0.5
ITEM: TIMESTEP
107
ITEM: NUMBER OF ATOMS
421
ITEM: BOX BOUNDS pp ss pp
0.0000000000000000e+00 2.2653923264628304e+01
2.1879574711865565e-01 2.0444402207141795e+01
-2.8317404080785380e-01 2.8317404080785380e-01
ITEM: ATOMS id type xs ys zs
361 1 0.000120267 0.853259 0.5
2 2 0.0249978 0.0476921 0.5
3 2 0.0499993 0.000101872 0.5
4 2 0.075 0.0476914 0.5
5 2 0.100001 0.000101872 0.5
6 2 0.125002 0.0476921 0.5
7 2 0.150002 0.000103645 0.5
8 2 0.175004 0.0476939 0.5
9 2 0.200003 0.000106836 0.5
10 2 0.225005 0.0476963 0.5
11 2 0.250004 0.000110848 0.5
12 2 0.275005 0.0476988 0.5
13 2 0.300004 0.000115047 0.5
14 2 0.325005 0.047701 0.5
15 2 0.350004 0.000118901 0.5
16 2 0.375004 0.0477027 0.5
17 2 0.400004 0.000122074 0.5
18 2 0.425003 0.047704 0.5
19 2 0.450003 0.000124416 0.5
20 2 0.475002 0.047705 0.5
406 1 0.250199 0.948315 0.5
42 1 0.0250099 0.142472 0.5
43 2 0.0499985 0.0950862 0.5
44 1 0.0750113 0.142473 0.5
45 2 0.100002 0.0950862 0.5
46 1 0.125012 0.142474 0.5
47 2 0.150004 0.0950862 0.5
48 1 0.175013 0.142474 0.5
49 2 0.200006 0.0950863 0.5
50 1 0.225012 0.142475 0.5
51 2 0.250007 0.0950866 0.5
52 1 0.275011 0.142476 0.5
53 2 0.300006 0.0950872 0.5
54 1 0.325009 0.142476 0.5
55 2 0.350005 0.0950878 0.5
56 1 0.375008 0.142476 0.5
57 2 0.400004 0.0950883 0.5
58 1 0.425006 0.142476 0.5
59 2 0.450003 0.0950887 0.5
60 1 0.475005 0.142476 0.5
405 1 0.200168 0.948294 0.5
82 1 0.0250336 0.237247 0.5
83 1 0.0500222 0.18986 0.5
84 1 0.0750332 0.237249 0.5
85 1 0.100022 0.189861 0.5
86 1 0.125032 0.237252 0.5
87 1 0.150021 0.189863 0.5
88 1 0.175029 0.237254 0.5
89 1 0.20002 0.189864 0.5
90 1 0.225026 0.237255 0.5
91 1 0.250018 0.189865 0.5
92 1 0.275023 0.237256 0.5
93 1 0.300015 0.189865 0.5
94 1 0.325019 0.237255 0.5
95 1 0.350012 0.189865 0.5
96 1 0.375015 0.237254 0.5
97 1 0.40001 0.189864 0.5
98 1 0.425013 0.237252 0.5
99 1 0.450008 0.189863 0.5
100 1 0.475011 0.23725 0.5
404 1 0.150145 0.948274 0.5
122 1 0.0250566 0.332022 0.5
123 1 0.0500448 0.284636 0.5
124 1 0.0750554 0.332027 0.5
125 1 0.100043 0.28464 0.5
126 1 0.125053 0.332033 0.5
127 1 0.15004 0.284643 0.5
128 1 0.175049 0.332037 0.5
129 1 0.200037 0.284646 0.5
130 1 0.225044 0.332039 0.5
131 1 0.250032 0.284647 0.5
132 1 0.275038 0.33204 0.5
133 1 0.300027 0.284647 0.5
134 1 0.325032 0.332038 0.5
135 1 0.350023 0.284645 0.5
136 1 0.375027 0.332034 0.5
137 1 0.400019 0.284642 0.5
138 1 0.425023 0.33203 0.5
139 1 0.450016 0.284639 0.5
140 1 0.47502 0.332024 0.5
403 1 0.100127 0.948257 0.5
162 1 0.0250796 0.426797 0.5
163 1 0.0500676 0.379413 0.5
164 1 0.0750783 0.426807 0.5
165 1 0.100066 0.379421 0.5
166 1 0.125076 0.426816 0.5
167 1 0.150062 0.379427 0.5
168 1 0.175071 0.426823 0.5
169 1 0.200057 0.379431 0.5
170 1 0.225066 0.426827 0.5
171 1 0.250051 0.379433 0.5
172 1 0.275059 0.426828 0.5
173 1 0.300044 0.379432 0.5
174 1 0.325051 0.426825 0.5
175 1 0.350037 0.379429 0.5
176 1 0.375043 0.426819 0.5
177 1 0.400031 0.379423 0.5
178 1 0.425036 0.42681 0.5
179 1 0.450027 0.379415 0.5
180 1 0.475032 0.426799 0.5
410 3 0.450485 0.948449 0.5
202 1 0.0251014 0.521572 0.5
203 1 0.0500904 0.474191 0.5
204 1 0.075101 0.521586 0.5
205 1 0.100089 0.474202 0.5
206 1 0.1251 0.521599 0.5
207 1 0.150086 0.474212 0.5
208 1 0.175097 0.52161 0.5
209 1 0.200082 0.47422 0.5
210 1 0.225093 0.521618 0.5
211 1 0.250075 0.474224 0.5
212 1 0.275086 0.521622 0.5
213 1 0.300067 0.474224 0.5
214 1 0.325077 0.52162 0.5
215 1 0.350058 0.474218 0.5
216 1 0.375067 0.521611 0.5
217 1 0.400049 0.474208 0.5
218 1 0.425056 0.521596 0.5
219 1 0.450042 0.474195 0.5
220 1 0.475048 0.521577 0.5
402 1 0.0501137 0.948241 0.5
242 1 0.025119 0.616346 0.5
243 1 0.0501112 0.568968 0.5
244 1 0.0751208 0.616364 0.5
245 1 0.100112 0.568983 0.5
246 1 0.125123 0.616381 0.5
247 1 0.150112 0.568998 0.5
248 1 0.175125 0.616397 0.5
249 1 0.20011 0.56901 0.5
250 1 0.225125 0.61641 0.5
251 1 0.250106 0.569018 0.5
252 1 0.275123 0.616419 0.5
253 1 0.3001 0.569021 0.5
254 1 0.325116 0.616422 0.5
255 1 0.350089 0.569017 0.5
256 1 0.375104 0.616415 0.5
257 1 0.400076 0.569003 0.5
258 1 0.425088 0.616394 0.5
259 1 0.450064 0.568981 0.5
260 1 0.475073 0.616363 0.5
409 1 0.40037 0.948405 0.5
282 1 0.0251288 0.711118 0.5
283 1 0.0501266 0.663742 0.5
284 1 0.075134 0.711137 0.5
285 1 0.100131 0.663761 0.5
286 1 0.125141 0.711157 0.5
287 1 0.150135 0.663779 0.5
288 1 0.17515 0.711177 0.5
289 1 0.20014 0.663796 0.5
290 1 0.225158 0.711196 0.5
291 1 0.250143 0.663811 0.5
292 1 0.275166 0.711214 0.5
293 1 0.300143 0.663822 0.5
294 1 0.325169 0.711227 0.5
295 1 0.350137 0.663825 0.5
296 1 0.375165 0.711231 0.5
297 1 0.400123 0.663814 0.5
298 1 0.425149 0.711217 0.5
299 1 0.450102 0.663783 0.5
300 1 0.475118 0.711169 0.5
321 1 0.000127544 0.758493 0.5
322 1 0.0251284 0.805885 0.5
323 1 0.0501331 0.758512 0.5
324 1 0.0751372 0.805904 0.5
325 1 0.100142 0.758532 0.5
326 1 0.125149 0.805924 0.5
327 1 0.150153 0.758552 0.5
328 1 0.175165 0.805945 0.5
329 1 0.200166 0.758573 0.5
330 1 0.225183 0.805969 0.5
331 1 0.25018 0.758595 0.5
332 1 0.275205 0.805994 0.5
333 1 0.300193 0.758617 0.5
334 1 0.325227 0.80602 0.5
335 1 0.350203 0.758635 0.5
336 1 0.375247 0.806044 0.5
337 1 0.400203 0.758642 0.5
338 1 0.425256 0.80606 0.5
339 1 0.450185 0.758628 0.5
340 1 0.475239 0.806054 0.5
408 1 0.350293 0.94837 0.5
362 1 0.0251173 0.900651 0.5
363 1 0.0501288 0.853276 0.5
364 1 0.0751286 0.900667 0.5
365 1 0.100141 0.853295 0.5
366 1 0.125144 0.900686 0.5
367 1 0.150157 0.853315 0.5
368 1 0.175164 0.900705 0.5
369 1 0.200177 0.853337 0.5
370 1 0.225189 0.900728 0.5
371 1 0.250203 0.853362 0.5
372 1 0.275222 0.900753 0.5
373 1 0.300233 0.85339 0.5
374 1 0.325264 0.900783 0.5
375 1 0.350268 0.853421 0.5
376 1 0.375317 0.900819 0.5
377 1 0.400304 0.853456 0.5
378 1 0.425385 0.900864 0.5
379 3 0.45033 0.853488 0.5
380 3 0.475473 0.900941 0.5
407 1 0.300239 0.94834 0.5
401 1 0.000103783 0.948225 0.5
281 1 0.000123961 0.663723 0.5
241 1 0.000110614 0.568951 0.5
161 1 6.81808e-05 0.379405 0.5
121 1 4.50252e-05 0.284632 0.5
81 1 2.15314e-05 0.189859 0.5
201 1 9.08044e-05 0.474178 0.5
21 2 0.500002 0.000125919 0.5
22 2 0.525001 0.0477056 0.5
23 2 0.550001 0.000126643 0.5
24 2 0.575 0.0477058 0.5