ITEM: TIMESTEP
0
ITEM: NUMBER OF ATOMS
421
ITEM: BOX BOUNDS pp ss pp
0.0000000000000000e+00 2.2653923264628304e+01
2.1879574711865565e-01 2.0463864186376274e+01
-2.8317404080785380e-01 2.8317404080785380e-01
ITEM: ATOMS id type xs ys zs
221 1 0.499997 0.473756 0.5
2 2 0.0249978 0.0476462 0.5
3 2 0.0499993 0.000101774 0.5
4 2 0.075 0.0476456 0.5
5 2 0.100001 0.000101774 0.5
6 2 0.125002 0.0476462 0.5
7 2 0.150002 0.000103546 0.5
8 2 0.175004 0.047648 0.5
9 2 0.200003 0.000106733 0.5
10 2 0.225005 0.0476505 0.5
11 2 0.250004 0.000110742 0.5
12 2 0.275005 0.0476529 0.5
13 2 0.300004 0.000114936 0.5
14 2 0.325005 0.0476551 0.5
15 2 0.350004 0.000118787 0.5
16 2 0.375004 0.0476568 0.5
17 2 0.400004 0.000121956 0.5
18 2 0.425003 0.0476581 0.5
19 2 0.450003 0.000124296 0.5
20 2 0.475002 0.0476591 0.5
406 1 0.250001 0.947414 0.5
42 1 0.0249972 0.142344 0.5
43 2 0.0499985 0.0949948 0.5
44 1 0.075 0.142345 0.5
45 2 0.100002 0.0949948 0.5
46 1 0.125003 0.142344 0.5
47 2 0.150004 0.0949948 0.5
48 1 0.175005 0.142342 0.5
49 2 0.200006 0.0949949 0.5
50 1 0.225007 0.142341 0.5
51 2 0.250007 0.0949952 0.5
52 1 0.275007 0.14234 0.5
53 2 0.300006 0.0949958 0.5
54 1 0.325007 0.14234 0.5
55 2 0.350005 0.0949964 0.5
56 1 0.375006 0.14234 0.5
57 2 0.400004 0.0949969 0.5
58 1 0.425004 0.14234 0.5
59 2 0.450003 0.0949973 0.5
60 1 0.475003 0.142339 0.5
405 1 0.199986 0.947428 0.5
82 1 0.0249986 0.237044 0.5
83 1 0.049999 0.189699 0.5
84 1 0.075 0.237045 0.5
85 1 0.100001 0.189699 0.5
86 1 0.125001 0.237044 0.5
87 1 0.150003 0.189697 0.5
88 1 0.175003 0.237042 0.5
89 1 0.200005 0.189694 0.5
90 1 0.225006 0.237039 0.5
91 1 0.250007 0.189692 0.5
92 1 0.275008 0.237035 0.5
93 1 0.300008 0.18969 0.5
94 1 0.325009 0.237033 0.5
95 1 0.350007 0.189689 0.5
96 1 0.375008 0.237032 0.5
97 1 0.400006 0.189689 0.5
98 1 0.425007 0.237033 0.5
99 1 0.450004 0.189689 0.5
100 1 0.475005 0.237032 0.5
404 1 0.14998 0.947402 0.5
122 1 0.024999 0.331727 0.5
123 1 0.0499995 0.284384 0.5
124 1 0.075 0.331727 0.5
125 1 0.100001 0.284384 0.5
126 1 0.125001 0.331727 0.5
127 1 0.150002 0.284383 0.5
128 1 0.175002 0.331725 0.5
129 1 0.200004 0.28438 0.5
130 1 0.225005 0.331723 0.5
131 1 0.250006 0.284377 0.5
132 1 0.275007 0.331719 0.5
133 1 0.300009 0.284374 0.5
134 1 0.325011 0.331716 0.5
135 1 0.35001 0.284372 0.5
136 1 0.375012 0.331713 0.5
137 1 0.40001 0.284371 0.5
138 1 0.425013 0.331714 0.5
139 1 0.450008 0.28437 0.5
140 1 0.475011 0.331715 0.5
403 1 0.0999905 0.947371 0.5
162 1 0.024999 0.426416 0.5
163 1 0.0499993 0.379069 0.5
164 1 0.075 0.426417 0.5
165 1 0.100001 0.379069 0.5
166 1 0.125001 0.426416 0.5
167 1 0.150001 0.379069 0.5
168 1 0.175002 0.426415 0.5
169 1 0.200003 0.379066 0.5
170 1 0.225005 0.426413 0.5
171 1 0.250006 0.379064 0.5
172 1 0.275008 0.426411 0.5
173 1 0.300009 0.379061 0.5
174 1 0.325012 0.426408 0.5
175 1 0.350014 0.379059 0.5
176 1 0.375013 0.426407 0.5
177 1 0.400015 0.379058 0.5
178 1 0.425009 0.426411 0.5
179 1 0.450013 0.37906 0.5
180 1 0.475002 0.426414 0.5
410 3 0.450049 0.947393 0.5
202 1 0.0249985 0.5211 0.5
203 1 0.0499994 0.473759 0.5
204 1 0.075 0.521101 0.5
205 1 0.100001 0.473759 0.5
206 1 0.125002 0.5211 0.5
207 1 0.150002 0.473758 0.5
208 1 0.175004 0.5211 0.5
209 1 0.200004 0.473757 0.5
210 1 0.225005 0.521098 0.5
211 1 0.250007 0.473755 0.5
212 1 0.275002 0.521099 0.5
213 1 0.300008 0.473754 0.5
214 1 0.324995 0.521102 0.5
215 1 0.350004 0.473755 0.5
216 1 0.374989 0.521104 0.5
217 1 0.399999 0.473758 0.5
218 1 0.424989 0.5211 0.5
219 1 0.449996 0.473758 0.5
220 1 0.474993 0.521095 0.5
402 1 0.0500095 0.947371 0.5
242 1 0.0249956 0.615787 0.5
243 1 0.0499984 0.568447 0.5
244 1 0.075 0.615788 0.5
245 1 0.100002 0.568447 0.5
246 1 0.125004 0.615787 0.5
247 1 0.150005 0.568447 0.5
248 1 0.175003 0.615789 0.5
249 1 0.200003 0.568447 0.5
250 1 0.224995 0.615795 0.5
251 1 0.249997 0.56845 0.5
252 1 0.274984 0.615802 0.5
253 1 0.299988 0.568456 0.5
254 1 0.324976 0.615802 0.5
255 1 0.349981 0.568456 0.5
256 1 0.374979 0.615797 0.5
257 1 0.399983 0.568451 0.5
258 1 0.424985 0.615787 0.5
259 1 0.449988 0.568443 0.5
260 1 0.474991 0.615781 0.5
409 1 0.400035 0.947372 0.5
282 1 0.024998 0.710465 0.5
283 1 0.0499969 0.663127 0.5
284 1 0.075 0.710461 0.5
285 1 0.100003 0.663127 0.5
286 1 0.125002 0.710465 0.5
287 1 0.150003 0.663131 0.5
288 1 0.174995 0.710478 0.5
289 1 0.199995 0.663141 0.5
290 1 0.224983 0.71049 0.5
291 1 0.249982 0.663149 0.5
292 1 0.274976 0.710493 0.5
293 1 0.299974 0.66315 0.5
294 1 0.324978 0.710488 0.5
295 1 0.349977 0.663145 0.5
296 1 0.374984 0.710478 0.5
297 1 0.399983 0.663135 0.5
298 1 0.42499 0.710473 0.5
299 1 0.449989 0.663129 0.5
300 1 0.474995 0.710467 0.5
321 1 3.64377e-06 0.757818 0.5
322 1 0.025002 0.80516 0.5
323 1 0.0499996 0.757803 0.5
324 1 0.075 0.805149 0.5
325 1 0.1 0.757803 0.5
326 1 0.124998 0.80516 0.5
327 1 0.149996 0.757818 0.5
328 1 0.174989 0.805181 0.5
329 1 0.199986 0.757834 0.5
330 1 0.224981 0.805192 0.5
331 1 0.249978 0.757841 0.5
332 1 0.274982 0.805189 0.5
333 1 0.29998 0.757835 0.5
334 1 0.32499 0.805178 0.5
335 1 0.349986 0.757827 0.5
336 1 0.375003 0.80517 0.5
337 1 0.399995 0.757821 0.5
338 1 0.425016 0.805167 0.5
339 1 0.450003 0.757811 0.5
340 1 0.475017 0.805159 0.5
408 1 0.350024 0.947379 0.5
362 1 0.0250069 0.899845 0.5
363 1 0.0500014 0.852493 0.5
364 1 0.075 0.899828 0.5
365 1 0.0999986 0.852493 0.5
366 1 0.124993 0.899845 0.5
367 1 0.149994 0.852518 0.5
368 1 0.174988 0.899877 0.5
369 1 0.199985 0.852538 0.5
370 1 0.224986 0.899886 0.5
371 1 0.249982 0.852536 0.5
372 1 0.274994 0.899865 0.5
373 1 0.299993 0.852523 0.5
374 1 0.32501 0.899848 0.5
375 1 0.350007 0.852511 0.5
376 1 0.375023 0.899841 0.5
377 1 0.400022 0.852505 0.5
378 1 0.425037 0.899846 0.5
379 3 0.450032 0.852512 0.5
380 3 0.475046 0.899882 0.5
407 1 0.300014 0.947385 0.5
261 1 0.499993 0.568438 0.5
401 1 2.0232e-05 0.947402 0.5
361 1 6.38311e-06 0.852518 0.5
301 1 0.499992 0.663123 0.5
21 2 0.500002 0.000125798 0.5
22 2 0.525001 0.0476598 0.5
23 2 0.550001 0.000126521 0.5
24 2 0.575 0.04766 0.5
25 2 0.599999 0.000126521 0.5
26 2 0.624999 0.0476598 0.5
27 2 0.649998 0.000125798 0.5
28 2 0.674998 0.0476591 0.5
29 2 0.699997 0.000124296 0.5
30 2 0.724997 0.0476581 0.5
31 2 0.749996 0.000121956 0.5
32 2 0.774996 0.0476568 0.5
33 2 0.799996 0.000118787 0.5
34 2 0.824995 0.0476551 0.5
35 2 0.849996 0.000114936 0.5
36 2 0.874995 0.0476529 0.5
37 2 0.899996 0.000110742 0.5
38 2 0.924995 0.0476505 0.5
39 2 0.949997 0.000106733 0.5
40 2 0.974996 0.047648 0.5
61 2 0.500002 0.0949975 0.5
62 1 0.525001 0.142339 0.5
63 2 0.550001 0.0949976 0.5
64 1 0.575 0.142339 0.5
65 2 0.599999 0.0949976 0.5
66 1 0.624999 0.142339 0.5
67 2 0.649998 0.0949975 0.5
68 1 0.674997 0.142339 0.5
69 2 0.699997 0.0949973 0.5
70 1 0.724996 0.14234 0.5
71 2 0.749996 0.0949969 0.5
72 1 0.774994 0.14234 0.5
73 2 0.799995 0.0949964 0.5
74 1 0.824993 0.14234 0.5
75 2 0.849994 0.0949958 0.5
76 1 0.874993 0.14234 0.5
77 2 0.899993 0.0949952 0.5
78 1 0.924993 0.142341 0.5
79 2 0.949994 0.0949949 0.5
80 1 0.974995 0.142342 0.5
101 1 0.500002 0.189689 0.5
102 1 0.525002 0.237031 0.5
103 1 0.550001 0.18969 0.5
104 1 0.575 0.237031 0.5
105 1 0.599999 0.18969 0.5
106 1 0.624998 0.237031 0.5
107 1 0.649998 0.189689 0.5
108 1 0.674995 0.237032 0.5
109 1 0.699996 0.189689 0.5
110 1 0.724993 0.237033 0.5
111 1 0.749994 0.189689 0.5
112 1 0.774992 0.237032 0.5
113 1 0.799993 0.189689 0.5
114 1 0.824991 0.237033 0.5
115 1 0.849992 0.18969 0.5
116 1 0.874992 0.237035 0.5
117 1 0.899993 0.189692 0.5
118 1 0.924994 0.237039 0.5
119 1 0.949995 0.189694 0.5
120 1 0.974997 0.237042 0.5
420 1 0.950014 0.947428 0.5
142 1 0.525006 0.331718 0.5
143 1 0.550003 0.284371 0.5
144 1 0.575 0.331721 0.5
145 1 0.599997 0.284371 0.5
146 1 0.624994 0.331718 0.5
147 1 0.649994 0.284371 0.5
148 1 0.674989 0.331715 0.5
149 1 0.699992 0.28437 0.5
150 1 0.724987 0.331714 0.5
151 1 0.74999 0.284371 0.5
152 1 0.774988 0.331713 0.5
153 1 0.79999 0.284372 0.5
154 1 0.824989 0.331716 0.5
155 1 0.849991 0.284374 0.5
156 1 0.874993 0.331719 0.5
157 1 0.899994 0.284377 0.5
158 1 0.924995 0.331723 0.5
159 1 0.949996 0.28438 0.5
160 1 0.974998 0.331725 0.5
419 1 0.899999 0.947414 0.5
182 1 0.525001 0.426414 0.5
183 1 0.550001 0.379066 0.5
184 1 0.575 0.426414 0.5
185 1 0.599999 0.379066 0.5
186 1 0.624999 0.426414 0.5
187 1 0.649993 0.379065 0.5
188 1 0.674998 0.426414 0.5
189 1 0.699987 0.37906 0.5
190 1 0.724991 0.426411 0.5
191 1 0.749985 0.379058 0.5
192 1 0.774987 0.426407 0.5
193 1 0.799986 0.379059 0.5
194 1 0.824988 0.426408 0.5
195 1 0.849991 0.379061 0.5
196 1 0.874992 0.426411 0.5
197 1 0.899994 0.379064 0.5
198 1 0.924995 0.426413 0.5
199 1 0.949997 0.379066 0.5
200 1 0.974998 0.426415 0.5
418 1 0.849986 0.947385 0.5
222 1 0.524995 0.521091 0.5
223 1 0.549999 0.473755 0.5
224 1 0.575 0.52109 0.5
225 1 0.600001 0.473755 0.5
226 1 0.625005 0.521091 0.5
227 1 0.650003 0.473756 0.5
228 1 0.675007 0.521095 0.5
229 1 0.700004 0.473758 0.5
230 1 0.725011 0.5211 0.5
231 1 0.750001 0.473758 0.5
232 1 0.775011 0.521104 0.5
233 1 0.799996 0.473755 0.5
234 1 0.825005 0.521102 0.5
235 1 0.849992 0.473754 0.5
236 1 0.874998 0.521099 0.5
237 1 0.899993 0.473755 0.5
238 1 0.924995 0.521098 0.5
239 1 0.949996 0.473757 0.5
240 1 0.974996 0.5211 0.5
281 1 0.999997 0.663131 0.5
262 1 0.524994 0.615779 0.5
263 1 0.549998 0.568436 0.5
264 1 0.575 0.615778 0.5
265 1 0.600002 0.568436 0.5
266 1 0.625006 0.615779 0.5
267 1 0.650007 0.568438 0.5
268 1 0.675009 0.615781 0.5
269 1 0.700012 0.568443 0.5
270 1 0.725015 0.615787 0.5
271 1 0.750017 0.568451 0.5
272 1 0.775021 0.615797 0.5
273 1 0.800019 0.568456 0.5
274 1 0.825024 0.615802 0.5
275 1 0.850012 0.568456 0.5
276 1 0.875016 0.615802 0.5
277 1 0.900003 0.56845 0.5
278 1 0.925005 0.615795 0.5
279 1 0.949997 0.568447 0.5
280 1 0.974997 0.615789 0.5
411 3 0.500093 0.947471 0.5
302 1 0.525 0.710462 0.5
303 1 0.549997 0.663118 0.5
304 1 0.575 0.710457 0.5
305 1 0.600003 0.663118 0.5
306 1 0.625 0.710462 0.5
307 1 0.650008 0.663123 0.5
308 1 0.675005 0.710467 0.5
309 1 0.700011 0.663129 0.5
310 1 0.72501 0.710473 0.5
311 1 0.750017 0.663135 0.5
312 1 0.775016 0.710478 0.5
313 1 0.800023 0.663145 0.5
314 1 0.825022 0.710488 0.5
315 1 0.850026 0.66315 0.5
316 1 0.875024 0.710493 0.5
317 1 0.900018 0.663149 0.5
318 1 0.925017 0.71049 0.5
319 1 0.950005 0.663141 0.5
320 1 0.975005 0.710478 0.5
417 1 0.799976 0.947379 0.5
342 1 0.525012 0.805162 0.5
343 1 0.550004 0.757802 0.5
344 1 0.575 0.805166 0.5
345 1 0.599996 0.757802 0.5
346 1 0.624988 0.805162 0.5
347 1 0.649991 0.757803 0.5
348 1 0.674983 0.805159 0.5
349 1 0.699997 0.757811 0.5
350 1 0.724984 0.805167 0.5
351 1 0.750005 0.757821 0.5
352 1 0.774997 0.80517 0.5
353 1 0.800014 0.757827 0.5
354 1 0.82501 0.805178 0.5
355 1 0.85002 0.757835 0.5
356 1 0.875018 0.805189 0.5
357 1 0.900022 0.757841 0.5
358 1 0.925019 0.805192 0.5
359 1 0.950014 0.757834 0.5
360 1 0.975011 0.805181 0.5
381 3 0.500017 0.852509 0.5
382 3 0.525009 0.899861 0.5
383 3 0.550006 0.852514 0.5
384 3 0.575 0.899876 0.5
385 3 0.599994 0.852514 0.5
386 3 0.624991 0.899861 0.5
387 3 0.649983 0.852509 0.5
388 3 0.674954 0.899882 0.5
389 3 0.699968 0.852512 0.5
390 3 0.724963 0.899846 0.5
391 3 0.749978 0.852505 0.5
392 3 0.774977 0.899841 0.5
393 1 0.799993 0.852511 0.5
394 1 0.82499 0.899848 0.5
395 1 0.850007 0.852523 0.5
396 1 0.875006 0.899865 0.5
397 1 0.900018 0.852536 0.5
398 1 0.925014 0.899886 0.5
399 1 0.950015 0.852538 0.5
400 1 0.975012 0.899877 0.5
421 3 0.606269 0.999898 0.5
412 3 0.549989 0.947289 0.5
413 3 0.600011 0.947289 0.5
414 3 0.649907 0.947471 0.5
415 3 0.699951 0.947393 0.5
416 3 0.749965 0.947372 0.5
201 1 0.999998 0.473758 0.5
1 2 0.999998 0.000103546 0.5
341 1 0.500009 0.757803 0.5
41 2 0.999996 0.0949948 0.5
181 1 0.500007 0.379065 0.5
141 1 0.500006 0.284371 0.5
81 1 0.999997 0.189697 0.5
121 1 0.999998 0.284383 0.5
161 1 0.999999 0.379069 0.5
241 1 0.999995 0.568447 0.5
ITEM: TIMESTEP
78
ITEM: NUMBER OF ATOMS
421
ITEM: BOX BOUNDS pp ss pp
0.0000000000000000e+00 2.2653923264628304e+01
2.1879574711865565e-01 2.0463864186376274e+01
-2.8317404080785380e-01 2.8317404080785380e-01
ITEM: ATOMS id type xs ys zs
221 1 0.499974 0.473689 0.5
2 2 0.0249978 0.0476462 0.5
3 2 0.0499993 0.000101774 0.5
4 2 0.075 0.0476456 0.5
5 2 0.100001 0.000101774 0.5
6 2 0.125002 0.0476462 0.5
7 2 0.150002 0.000103546 0.5
8 2 0.175004 0.047648 0.5
9 2 0.200003 0.000106733 0.5
10 2 0.225005 0.0476505 0.5
11 2 0.250004 0.000110742 0.5
12 2 0.275005 0.0476529 0.5
13 2 0.300004 0.000114936 0.5
14 2 0.325005 0.0476551 0.5
15 2 0.350004 0.000118787 0.5
16 2 0.375004 0.0476568 0.5
17 2 0.400004 0.000121956 0.5
18 2 0.425003 0.0476581 0.5
19 2 0.450003 0.000124296 0.5
20 2 0.475002 0.0476591 0.5
406 1 0.249967 0.947319 0.5
42 1 0.0249947 0.142337 0.5
43 2 0.0499985 0.0949948 0.5
44 1 0.0749956 0.142337 0.5
45 2 0.100002 0.0949948 0.5
46 1 0.124997 0.142336 0.5
47 2 0.150004 0.0949948 0.5
48 1 0.174998 0.142336 0.5
49 2 0.200006 0.0949949 0.5
50 1 0.224998 0.142336 0.5
51 2 0.250007 0.0949952 0.5
52 1 0.274999 0.142336 0.5
53 2 0.300006 0.0949958 0.5
54 1 0.324999 0.142337 0.5
55 2 0.350005 0.0949964 0.5
56 1 0.374999 0.142337 0.5
57 2 0.400004 0.0949969 0.5
58 1 0.424999 0.142337 0.5
59 2 0.450003 0.0949973 0.5
60 1 0.474999 0.142337 0.5
405 1 0.199959 0.947329 0.5
82 1 0.0249888 0.237024 0.5
83 1 0.0499916 0.18968 0.5
84 1 0.0749869 0.237023 0.5
85 1 0.0999911 0.189679 0.5
86 1 0.124986 0.237022 0.5
87 1 0.149991 0.189678 0.5
88 1 0.174985 0.23702 0.5
89 1 0.199991 0.189678 0.5
90 1 0.224985 0.237019 0.5
91 1 0.249992 0.189677 0.5
92 1 0.274985 0.237017 0.5
93 1 0.299992 0.189677 0.5
94 1 0.324987 0.237016 0.5
95 1 0.349993 0.189676 0.5
96 1 0.374989 0.237015 0.5
97 1 0.399994 0.189676 0.5
98 1 0.424991 0.237014 0.5
99 1 0.449996 0.189676 0.5
100 1 0.474993 0.237014 0.5
404 1 0.149949 0.947338 0.5
122 1 0.0249806 0.331715 0.5
123 1 0.0499836 0.284369 0.5
124 1 0.0749772 0.331713 0.5
125 1 0.0999811 0.284367 0.5
126 1 0.124975 0.331709 0.5
127 1 0.149979 0.284364 0.5
128 1 0.174973 0.331705 0.5
129 1 0.199979 0.284361 0.5
130 1 0.224972 0.331701 0.5
131 1 0.249979 0.284358 0.5
132 1 0.274973 0.331697 0.5
133 1 0.29998 0.284356 0.5
134 1 0.324975 0.331693 0.5
135 1 0.349982 0.284354 0.5
136 1 0.374978 0.33169 0.5
137 1 0.399985 0.284352 0.5
138 1 0.424982 0.331688 0.5
139 1 0.449988 0.284352 0.5
140 1 0.474986 0.331688 0.5
403 1 0.0999364 0.947349 0.5
162 1 0.0249694 0.426408 0.5
163 1 0.0499734 0.37906 0.5
164 1 0.0749656 0.426404 0.5
165 1 0.0999701 0.379056 0.5
166 1 0.124963 0.426398 0.5
167 1 0.149968 0.379051 0.5
168 1 0.174961 0.426391 0.5
169 1 0.199967 0.379045 0.5
170 1 0.22496 0.426383 0.5
171 1 0.249966 0.379039 0.5
172 1 0.274961 0.426376 0.5
173 1 0.299968 0.379033 0.5
174 1 0.324962 0.426368 0.5
175 1 0.34997 0.379028 0.5
176 1 0.374965 0.426362 0.5
177 1 0.399974 0.379025 0.5
178 1 0.42497 0.426358 0.5
179 1 0.449979 0.379023 0.5
180 1 0.474976 0.426356 0.5
410 3 0.450009 0.947282 0.5
202 1 0.0249547 0.521102 0.5
203 1 0.0499607 0.473753 0.5
204 1 0.0749523 0.521096 0.5
205 1 0.0999578 0.473746 0.5
206 1 0.124951 0.521087 0.5
207 1 0.149956 0.473739 0.5
208 1 0.17495 0.521077 0.5
209 1 0.199955 0.47373 0.5
210 1 0.224949 0.521066 0.5
211 1 0.249954 0.47372 0.5
212 1 0.274948 0.521054 0.5
213 1 0.299955 0.47371 0.5
214 1 0.324949 0.521042 0.5
215 1 0.349957 0.473701 0.5
216 1 0.374951 0.521031 0.5
217 1 0.399961 0.473693 0.5
218 1 0.424955 0.521023 0.5
219 1 0.449967 0.473689 0.5
220 1 0.474962 0.521019 0.5
402 1 0.049921 0.94736 0.5
242 1 0.0249375 0.615795 0.5
243 1 0.0499457 0.568445 0.5
244 1 0.0749385 0.615785 0.5
245 1 0.0999451 0.568436 0.5
246 1 0.12494 0.615774 0.5
247 1 0.149945 0.568425 0.5
248 1 0.174941 0.615762 0.5
249 1 0.199945 0.568414 0.5
250 1 0.224941 0.615749 0.5
251 1 0.249944 0.568401 0.5
252 1 0.27494 0.615734 0.5
253 1 0.299943 0.568387 0.5
254 1 0.324938 0.615718 0.5
255 1 0.349943 0.568373 0.5
256 1 0.374936 0.615701 0.5
257 1 0.399944 0.568359 0.5
258 1 0.424936 0.615684 0.5
259 1 0.449949 0.56835 0.5
260 1 0.474941 0.615673 0.5
409 1 0.399992 0.947289 0.5
282 1 0.0249204 0.710483 0.5
283 1 0.0499304 0.663134 0.5
284 1 0.074927 0.71047 0.5
285 1 0.099934 0.663123 0.5
286 1 0.124933 0.710457 0.5
287 1 0.149937 0.66311 0.5
288 1 0.174937 0.710444 0.5
289 1 0.199939 0.663097 0.5
290 1 0.224939 0.710431 0.5
291 1 0.249939 0.663083 0.5
292 1 0.274939 0.710416 0.5
293 1 0.299937 0.663067 0.5
294 1 0.324936 0.7104 0.5
295 1 0.349933 0.663049 0.5
296 1 0.374929 0.710379 0.5
297 1 0.399928 0.663027 0.5
298 1 0.424919 0.710351 0.5
299 1 0.449925 0.663004 0.5
300 1 0.47491 0.710317 0.5
321 1 -9.18995e-05 0.757831 0.5
322 1 0.0249085 0.805161 0.5
323 1 0.0499184 0.757817 0.5
324 1 0.0749211 0.805147 0.5
325 1 0.0999274 0.757803 0.5
326 1 0.124931 0.805134 0.5
327 1 0.149935 0.75779 0.5
328 1 0.174939 0.805122 0.5
329 1 0.19994 0.757777 0.5
330 1 0.224945 0.80511 0.5
331 1 0.249942 0.757764 0.5
332 1 0.274948 0.805097 0.5
333 1 0.299941 0.75775 0.5
334 1 0.324947 0.805084 0.5
335 1 0.349937 0.757733 0.5
336 1 0.374942 0.805067 0.5
337 1 0.399926 0.75771 0.5
338 1 0.424928 0.805043 0.5
339 1 0.449908 0.757673 0.5
340 1 0.474899 0.804994 0.5
408 1 0.349982 0.947299 0.5
362 1 0.0249074 0.899832 0.5
363 1 0.0499142 0.85249 0.5
364 1 0.0749241 0.899819 0.5
365 1 0.0999278 0.852476 0.5
366 1 0.124937 0.899807 0.5
367 1 0.149939 0.852464 0.5
368 1 0.174948 0.899797 0.5
369 1 0.199947 0.852453 0.5
370 1 0.224956 0.899786 0.5
371 1 0.249953 0.852442 0.5
372 1 0.274963 0.899776 0.5
373 1 0.299956 0.852431 0.5
374 1 0.324968 0.899766 0.5
375 1 0.349957 0.852418 0.5
376 1 0.374972 0.899755 0.5
377 1 0.399954 0.852404 0.5
378 1 0.424973 0.899744 0.5
379 3 0.449942 0.852381 0.5
380 3 0.474964 0.899724 0.5
407 1 0.299975 0.947309 0.5
261 1 0.499958 0.568347 0.5
401 1 -9.85035e-05 0.947373 0.5
361 1 -0.000102519 0.852504 0.5
301 1 0.499932 0.662992 0.5
21 2 0.500002 0.000125798 0.5
22 2 0.525001 0.0476598 0.5
23 2 0.550001 0.000126521 0.5
24 2 0.575 0.04766 0.5
25 2 0.599999 0.000126521 0.5
26 2 0.624999 0.0476598 0.5
27 2 0.649998 0.000125798 0.5
28 2 0.674998 0.0476591 0.5
29 2 0.699997 0.000124296 0.5
30 2 0.724997 0.0476581 0.5
31 2 0.749996 0.000121956 0.5
32 2 0.774996 0.0476568 0.5
33 2 0.799996 0.000118787 0.5
34 2 0.824995 0.0476551 0.5
35 2 0.849996 0.000114936 0.5
36 2 0.874995 0.0476529 0.5
37 2 0.899996 0.000110742 0.5
38 2 0.924995 0.0476505 0.5
39 2 0.949997 0.000106733 0.5
40 2 0.974996 0.047648 0.5
61 2 0.500002 0.0949975 0.5
62 1 0.525 0.142338 0.5
63 2 0.550001 0.0949976 0.5
64 1 0.575 0.142338 0.5
65 2 0.599999 0.0949976 0.5
66 1 0.625 0.142338 0.5
67 2 0.649998 0.0949975 0.5
68 1 0.674999 0.142338 0.5
69 2 0.699997 0.0949973 0.5
70 1 0.724998 0.142338 0.5
71 2 0.749996 0.0949969 0.5
72 1 0.774998 0.142339 0.5
73 2 0.799995 0.0949964 0.5
74 1 0.824996 0.142338 0.5
75 2 0.849994 0.0949958 0.5
76 1 0.874995 0.142338 0.5
77 2 0.899993 0.0949952 0.5
78 1 0.924995 0.142338 0.5
79 2 0.949994 0.0949949 0.5
80 1 0.974994 0.142337 0.5
101 1 0.499997 0.189676 0.5
102 1 0.524996 0.237015 0.5
103 1 0.549999 0.189677 0.5
104 1 0.574998 0.237016 0.5
105 1 0.599999 0.189678 0.5
106 1 0.625 0.237017 0.5
107 1 0.65 0.189678 0.5
108 1 0.675001 0.237019 0.5
109 1 0.7 0.189679 0.5
110 1 0.725001 0.237021 0.5
111 1 0.749999 0.18968 0.5
112 1 0.775 0.237022 0.5
113 1 0.799998 0.189681 0.5
114 1 0.824998 0.237024 0.5
115 1 0.849997 0.189681 0.5
116 1 0.874996 0.237025 0.5
117 1 0.899995 0.189681 0.5
118 1 0.924994 0.237025 0.5
119 1 0.949994 0.189681 0.5
120 1 0.974991 0.237025 0.5
420 1 0.949876 0.947387 0.5
142 1 0.524991 0.331689 0.5
143 1 0.549995 0.284353 0.5
144 1 0.574995 0.331691 0.5
145 1 0.599998 0.284355 0.5
146 1 0.624998 0.331694 0.5
147 1 0.65 0.284357 0.5
148 1 0.675 0.331698 0.5
149 1 0.700001 0.28436 0.5
150 1 0.725 0.331702 0.5
151 1 0.75 0.284363 0.5
152 1 0.774999 0.331707 0.5
153 1 0.799999 0.284366 0.5
154 1 0.824997 0.331711 0.5
155 1 0.849997 0.284368 0.5
156 1 0.874993 0.331714 0.5
157 1 0.899994 0.28437 0.5
158 1 0.924989 0.331716 0.5
159 1 0.94999 0.28437 0.5
160 1 0.974985 0.331716 0.5
419 1 0.899844 0.947403 0.5
182 1 0.524983 0.426358 0.5
183 1 0.54999 0.379025 0.5
184 1 0.574989 0.426362 0.5
185 1 0.599994 0.379029 0.5
186 1 0.624994 0.426368 0.5
187 1 0.649998 0.379034 0.5
188 1 0.674997 0.426375 0.5
189 1 0.699999 0.37904 0.5
190 1 0.724997 0.426384 0.5
191 1 0.749999 0.379046 0.5
192 1 0.774995 0.426392 0.5
193 1 0.799996 0.379052 0.5
194 1 0.824991 0.4264 0.5
195 1 0.849992 0.379057 0.5
196 1 0.874986 0.426406 0.5
197 1 0.899988 0.379061 0.5
198 1 0.92498 0.426409 0.5
199 1 0.949982 0.379063 0.5
200 1 0.974974 0.42641 0.5
418 1 0.849799 0.947423 0.5
222 1 0.524971 0.52102 0.5
223 1 0.549982 0.473692 0.5
224 1 0.57498 0.521026 0.5
225 1 0.599988 0.473699 0.5
226 1 0.624987 0.521037 0.5
227 1 0.649993 0.473708 0.5
228 1 0.674991 0.521051 0.5
229 1 0.699995 0.473719 0.5
230 1 0.72499 0.521066 0.5
231 1 0.749993 0.473731 0.5
232 1 0.774986 0.521081 0.5
233 1 0.799989 0.473742 0.5
234 1 0.824979 0.521094 0.5
235 1 0.849983 0.473751 0.5
236 1 0.874971 0.521103 0.5
237 1 0.899976 0.473756 0.5
238 1 0.924964 0.521107 0.5
239 1 0.94997 0.473758 0.5
240 1 0.974958 0.521107 0.5
281 1 0.999927 0.663145 0.5
262 1 0.524953 0.615672 0.5
263 1 0.549969 0.568351 0.5
264 1 0.574966 0.615681 0.5
265 1 0.599978 0.568362 0.5
266 1 0.624976 0.615699 0.5
267 1 0.649985 0.568378 0.5
268 1 0.674981 0.615724 0.5
269 1 0.699986 0.568398 0.5
270 1 0.724977 0.615752 0.5
271 1 0.749982 0.568418 0.5
272 1 0.774967 0.615778 0.5
273 1 0.799974 0.568437 0.5
274 1 0.824955 0.615797 0.5
275 1 0.849964 0.56845 0.5
276 1 0.874945 0.615807 0.5
277 1 0.899956 0.568457 0.5
278 1 0.92494 0.615808 0.5
279 1 0.94995 0.568457 0.5
280 1 0.974938 0.615803 0.5
411 3 0.50002 0.947263 0.5
302 1 0.524921 0.710304 0.5
303 1 0.549948 0.662995 0.5
304 1 0.574943 0.710315 0.5
305 1 0.599963 0.663013 0.5
306 1 0.624961 0.710348 0.5
307 1 0.649973 0.663042 0.5
308 1 0.674964 0.710397 0.5
309 1 0.699971 0.663079 0.5
310 1 0.724949 0.710451 0.5
311 1 0.749959 0.663117 0.5
312 1 0.774924 0.710495 0.5
313 1 0.799942 0.663145 0.5
314 1 0.82491 0.710512 0.5
315 1 0.849931 0.663158 0.5
316 1 0.874906 0.710513 0.5
317 1 0.899925 0.66316 0.5
318 1 0.924908 0.710506 0.5
319 1 0.949925 0.663154 0.5
320 1 0.974914 0.710495 0.5
417 1 0.799736 0.947446 0.5
342 1 0.524855 0.804893 0.5
343 1 0.549909 0.757606 0.5
344 1 0.574898 0.804896 0.5
345 1 0.59994 0.757637 0.5
346 1 0.624941 0.804968 0.5
347 1 0.649956 0.757698 0.5
348 1 0.674931 0.805087 0.5
349 1 0.699939 0.757778 0.5
350 1 0.724857 0.805217 0.5
351 1 0.749898 0.75785 0.5
352 1 0.774839 0.805233 0.5
353 1 0.799881 0.757869 0.5
354 1 0.824845 0.805224 0.5
355 1 0.84988 0.757868 0.5
356 1 0.87486 0.80521 0.5
357 1 0.899887 0.757858 0.5
358 1 0.924877 0.805193 0.5
359 1 0.949897 0.757845 0.5
360 1 0.974894 0.805177 0.5
381 3 0.499898 0.852321 0.5
382 3 0.524908 0.89967 0.5
383 3 0.549794 0.852113 0.5
384 3 0.574658 0.8992 0.5
385 3 0.599899 0.852176 0.5
386 3 0.624926 0.899479 0.5
387 3 0.649933 0.852348 0.5
388 3 0.674602 0.900108 0.5
389 3 0.699784 0.852615 0.5
390 3 0.724661 0.899996 0.5
391 3 0.749777 0.852605 0.5
392 3 0.774736 0.899936 0.5
393 1 0.799799 0.852581 0.5
394 1 0.824786 0.899908 0.5
395 1 0.849826 0.85256 0.5
396 1 0.874827 0.899884 0.5
397 1 0.899853 0.852539 0.5
398 1 0.92486 0.899864 0.5
399 1 0.949877 0.852521 0.5
400 1 0.974886 0.899847 0.5
421 3 0.606578 0.999673 0.5
412 3 0.550028 0.947292 0.5
413 3 0.599505 0.94599 0.5
414 3 0.649056 0.948066 0.5
415 3 0.699442 0.947583 0.5
416 3 0.74964 0.947476 0.5
201 1 0.999965 0.473757 0.5
1 2 0.999998 0.000103546 0.5
341 1 0.499889 0.757618 0.5
41 2 0.999996 0.0949948 0.5
181 1 0.499985 0.379023 0.5
141 1 0.499992 0.284352 0.5
81 1 0.999993 0.189681 0.5
121 1 0.999987 0.28437 0.5
161 1 0.999978 0.379062 0.5
241 1 0.999947 0.568453 0.5
ITEM: TIMESTEP
107
ITEM: NUMBER OF ATOMS
421
ITEM: BOX BOUNDS pp ss pp
0.0000000000000000e+00 2.2653923264628304e+01
2.1879574711865565e-01 2.0459308945891991e+01
-2.8317404080785380e-01 2.8317404080785380e-01
ITEM: ATOMS id type xs ys zs
221 1 0.499957 0.473785 0.5
2 2 0.0249978 0.047657 0.5
3 2 0.0499993 0.000101796 0.5
4 2 0.075 0.0476563 0.5
5 2 0.100001 0.000101796 0.5
6 2 0.125002 0.047657 0.5
7 2 0.150002 0.000103569 0.5
8 2 0.175004 0.0476587 0.5
9 2 0.200003 0.000106757 0.5
10 2 0.225005 0.0476612 0.5
11 2 0.250004 0.000110767 0.5
12 2 0.275005 0.0476637 0.5
13 2 0.300004 0.000114962 0.5
14 2 0.325005 0.0476658 0.5
15 2 0.350004 0.000118814 0.5
16 2 0.375004 0.0476675 0.5
17 2 0.400004 0.000121984 0.5
18 2 0.425003 0.0476689 0.5
19 2 0.450003 0.000124324 0.5
20 2 0.475002 0.0476699 0.5
406 1 0.249946 0.947517 0.5
42 1 0.0249923 0.142368 0.5
43 2 0.0499985 0.0950162 0.5
44 1 0.0749931 0.142368 0.5
45 2 0.100002 0.0950162 0.5
46 1 0.124994 0.142367 0.5
47 2 0.150004 0.0950162 0.5
48 1 0.174995 0.142367 0.5
49 2 0.200006 0.0950162 0.5
50 1 0.224996 0.142367 0.5
51 2 0.250007 0.0950166 0.5
52 1 0.274996 0.142367 0.5
53 2 0.300006 0.0950172 0.5
54 1 0.324996 0.142367 0.5
55 2 0.350005 0.0950178 0.5
56 1 0.374997 0.142368 0.5
57 2 0.400004 0.0950183 0.5
58 1 0.424997 0.142368 0.5
59 2 0.450003 0.0950186 0.5
60 1 0.474997 0.142368 0.5
405 1 0.199937 0.947528 0.5
82 1 0.0249815 0.237074 0.5
83 1 0.0499867 0.18972 0.5
84 1 0.0749795 0.237073 0.5
85 1 0.0999861 0.18972 0.5
86 1 0.124978 0.237072 0.5
87 1 0.149986 0.189719 0.5
88 1 0.174977 0.23707 0.5
89 1 0.199986 0.189718 0.5
90 1 0.224977 0.237068 0.5
91 1 0.249986 0.189717 0.5
92 1 0.274978 0.237067 0.5
93 1 0.299987 0.189717 0.5
94 1 0.324979 0.237066 0.5
95 1 0.349988 0.189717 0.5
96 1 0.374981 0.237065 0.5
97 1 0.399989 0.189716 0.5
98 1 0.424984 0.237064 0.5
99 1 0.449991 0.189716 0.5
100 1 0.474986 0.237064 0.5
404 1 0.149926 0.947539 0.5
122 1 0.0249688 0.331784 0.5
123 1 0.0499739 0.284428 0.5
124 1 0.0749652 0.331782 0.5
125 1 0.0999713 0.284426 0.5
126 1 0.124962 0.331779 0.5
127 1 0.149969 0.284424 0.5
128 1 0.174961 0.331774 0.5
129 1 0.199969 0.284421 0.5
130 1 0.22496 0.33177 0.5
131 1 0.249969 0.284418 0.5
132 1 0.274961 0.331765 0.5
133 1 0.29997 0.284415 0.5
134 1 0.324963 0.331761 0.5
135 1 0.349972 0.284413 0.5
136 1 0.374966 0.331758 0.5
137 1 0.399975 0.284411 0.5
138 1 0.42497 0.331757 0.5
139 1 0.449979 0.28441 0.5
140 1 0.474975 0.331756 0.5
403 1 0.0999132 0.94755 0.5
162 1 0.0249536 0.426497 0.5
163 1 0.0499595 0.379139 0.5
164 1 0.0749496 0.426493 0.5
165 1 0.099956 0.379135 0.5
166 1 0.124947 0.426487 0.5
167 1 0.149953 0.37913 0.5
168 1 0.174945 0.42648 0.5
169 1 0.199952 0.379124 0.5
170 1 0.224944 0.426472 0.5
171 1 0.249952 0.379118 0.5
172 1 0.274944 0.426463 0.5
173 1 0.299953 0.379112 0.5
174 1 0.324946 0.426456 0.5
175 1 0.349956 0.379106 0.5
176 1 0.374949 0.426449 0.5
177 1 0.39996 0.379103 0.5
178 1 0.424955 0.426445 0.5
179 1 0.449965 0.379101 0.5
180 1 0.474961 0.426444 0.5
410 3 0.449994 0.947473 0.5
202 1 0.0249357 0.521211 0.5
203 1 0.049943 0.473852 0.5
204 1 0.074933 0.521204 0.5
205 1 0.09994 0.473845 0.5
206 1 0.124931 0.521195 0.5
207 1 0.149938 0.473837 0.5
208 1 0.17493 0.521185 0.5
209 1 0.199937 0.473828 0.5
210 1 0.224929 0.521174 0.5
211 1 0.249936 0.473817 0.5
212 1 0.274929 0.521161 0.5
213 1 0.299937 0.473807 0.5
214 1 0.324929 0.521149 0.5
215 1 0.349939 0.473798 0.5
216 1 0.374932 0.521138 0.5
217 1 0.399943 0.47379 0.5
218 1 0.424937 0.521129 0.5
219 1 0.449949 0.473786 0.5
220 1 0.474944 0.521125 0.5
402 1 0.0498975 0.947562 0.5
242 1 0.0249159 0.615924 0.5
243 1 0.0499251 0.568564 0.5
244 1 0.0749167 0.615914 0.5
245 1 0.0999243 0.568555 0.5
246 1 0.124918 0.615903 0.5
247 1 0.149924 0.568544 0.5
248 1 0.174919 0.61589 0.5
249 1 0.199924 0.568531 0.5
250 1 0.224919 0.615876 0.5
251 1 0.249923 0.568518 0.5
252 1 0.274918 0.615861 0.5
253 1 0.299922 0.568504 0.5
254 1 0.324916 0.615845 0.5
255 1 0.349922 0.568489 0.5
256 1 0.374915 0.615827 0.5
257 1 0.399924 0.568475 0.5
258 1 0.424915 0.615809 0.5
259 1 0.44993 0.568465 0.5
260 1 0.474922 0.615798 0.5
409 1 0.399976 0.947482 0.5
282 1 0.0248972 0.710632 0.5
283 1 0.0499078 0.663273 0.5
284 1 0.0749036 0.710619 0.5
285 1 0.0999113 0.663261 0.5
286 1 0.124909 0.710606 0.5
287 1 0.149914 0.663248 0.5
288 1 0.174914 0.710592 0.5
289 1 0.199916 0.663235 0.5
290 1 0.224916 0.710578 0.5
291 1 0.249916 0.66322 0.5
292 1 0.274916 0.710563 0.5
293 1 0.299915 0.663204 0.5
294 1 0.324913 0.710546 0.5
295 1 0.349911 0.663185 0.5
296 1 0.374907 0.710524 0.5
297 1 0.399907 0.663162 0.5
298 1 0.424898 0.710496 0.5
299 1 0.449905 0.663139 0.5
300 1 0.474891 0.710462 0.5
301 1 0.499913 0.663127 0.5
322 1 0.0248846 0.805331 0.5
323 1 0.0498947 0.757976 0.5
324 1 0.0748971 0.805317 0.5
325 1 0.0999036 0.757962 0.5
326 1 0.124908 0.805303 0.5
327 1 0.149911 0.757949 0.5
328 1 0.174916 0.80529 0.5
329 1 0.199916 0.757935 0.5
330 1 0.224922 0.805278 0.5
331 1 0.249919 0.757921 0.5
332 1 0.274925 0.805264 0.5
333 1 0.299919 0.757906 0.5
334 1 0.324925 0.80525 0.5
335 1 0.349915 0.757888 0.5
336 1 0.374921 0.805232 0.5
337 1 0.399906 0.757864 0.5
338 1 0.424909 0.805207 0.5
339 1 0.449889 0.757827 0.5
340 1 0.474881 0.805157 0.5
408 1 0.349964 0.947494 0.5
362 1 0.0248835 0.900023 0.5
363 1 0.0498902 0.85267 0.5
364 1 0.0749003 0.90001 0.5
365 1 0.0999039 0.852656 0.5
366 1 0.124914 0.899998 0.5
367 1 0.149915 0.852644 0.5
368 1 0.174925 0.899986 0.5
369 1 0.199924 0.852631 0.5
370 1 0.224934 0.899974 0.5
371 1 0.24993 0.852619 0.5
372 1 0.274941 0.899963 0.5
373 1 0.299935 0.852607 0.5
374 1 0.324948 0.899951 0.5
375 1 0.349937 0.852594 0.5
376 1 0.374953 0.899939 0.5
377 1 0.399935 0.852577 0.5
378 1 0.424957 0.899926 0.5
379 3 0.449927 0.852554 0.5
380 3 0.47495 0.899904 0.5
407 1 0.299955 0.947506 0.5
261 1 0.499939 0.568462 0.5
101 1 0.499992 0.189717 0.5
381 3 0.499884 0.85249 0.5
341 1 0.499871 0.757771 0.5
181 1 0.499971 0.379101 0.5
141 1 0.499982 0.284411 0.5
21 2 0.500002 0.000125826 0.5
22 2 0.525001 0.0476705 0.5
23 2 0.550001 0.00012655 0.5