ITEM: TIMESTEP
0
ITEM: NUMBER OF ATOMS
421
ITEM: BOX BOUNDS pp ss pp
0.0000000000000000e+00 2.2653923264628304e+01
2.1879574711865565e-01 2.0374739656923339e+01
-2.8317404080785380e-01 2.8317404080785380e-01
ITEM: ATOMS id type xs ys zs
221 1 0.499997 0.47585 0.5
2 2 0.0249978 0.0478569 0.5
3 2 0.0499993 0.000102224 0.5
4 2 0.075 0.0478563 0.5
5 2 0.100001 0.000102224 0.5
6 2 0.125002 0.0478569 0.5
7 2 0.150002 0.000104004 0.5
8 2 0.175004 0.0478587 0.5
9 2 0.200003 0.000107205 0.5
10 2 0.225005 0.0478612 0.5
11 2 0.250004 0.000111231 0.5
12 2 0.275005 0.0478637 0.5
13 2 0.300004 0.000115444 0.5
14 2 0.325005 0.0478658 0.5
15 2 0.350004 0.000119312 0.5
16 2 0.375004 0.0478675 0.5
17 2 0.400004 0.000122496 0.5
18 2 0.425003 0.0478689 0.5
19 2 0.450003 0.000124846 0.5
20 2 0.475002 0.0478699 0.5
406 1 0.250001 0.951603 0.5
42 1 0.0249972 0.142974 0.5
43 2 0.0499985 0.0954148 0.5
44 1 0.075 0.142974 0.5
45 2 0.100002 0.0954148 0.5
46 1 0.125003 0.142974 0.5
47 2 0.150004 0.0954148 0.5
48 1 0.175005 0.142972 0.5
49 2 0.200006 0.0954149 0.5
50 1 0.225007 0.14297 0.5
51 2 0.250007 0.0954152 0.5
52 1 0.275007 0.142969 0.5
53 2 0.300006 0.0954158 0.5
54 1 0.325007 0.142969 0.5
55 2 0.350005 0.0954164 0.5
56 1 0.375006 0.142969 0.5
57 2 0.400004 0.0954169 0.5
58 1 0.425004 0.142969 0.5
59 2 0.450003 0.0954173 0.5
60 1 0.475003 0.142969 0.5
405 1 0.199986 0.951618 0.5
82 1 0.0249986 0.238092 0.5
83 1 0.049999 0.190538 0.5
84 1 0.075 0.238093 0.5
85 1 0.100001 0.190538 0.5
86 1 0.125001 0.238092 0.5
87 1 0.150003 0.190536 0.5
88 1 0.175003 0.23809 0.5
89 1 0.200005 0.190533 0.5
90 1 0.225006 0.238087 0.5
91 1 0.250007 0.19053 0.5
92 1 0.275008 0.238083 0.5
93 1 0.300008 0.190529 0.5
94 1 0.325009 0.238081 0.5
95 1 0.350007 0.190528 0.5
96 1 0.375008 0.238081 0.5
97 1 0.400006 0.190528 0.5
98 1 0.425007 0.238081 0.5
99 1 0.450004 0.190528 0.5
100 1 0.475005 0.238081 0.5
404 1 0.14998 0.951591 0.5
122 1 0.024999 0.333194 0.5
123 1 0.0499995 0.285642 0.5
124 1 0.075 0.333194 0.5
125 1 0.100001 0.285642 0.5
126 1 0.125001 0.333194 0.5
127 1 0.150002 0.285641 0.5
128 1 0.175002 0.333192 0.5
129 1 0.200004 0.285638 0.5
130 1 0.225005 0.333189 0.5
131 1 0.250006 0.285635 0.5
132 1 0.275007 0.333186 0.5
133 1 0.300009 0.285631 0.5
134 1 0.325011 0.333183 0.5
135 1 0.35001 0.285629 0.5
136 1 0.375012 0.33318 0.5
137 1 0.40001 0.285628 0.5
138 1 0.425013 0.33318 0.5
139 1 0.450008 0.285628 0.5
140 1 0.475011 0.333181 0.5
403 1 0.0999905 0.95156 0.5
162 1 0.024999 0.428302 0.5
163 1 0.0499993 0.380745 0.5
164 1 0.075 0.428303 0.5
165 1 0.100001 0.380745 0.5
166 1 0.125001 0.428302 0.5
167 1 0.150001 0.380745 0.5
168 1 0.175002 0.428301 0.5
169 1 0.200003 0.380742 0.5
170 1 0.225005 0.428299 0.5
171 1 0.250006 0.38074 0.5
172 1 0.275008 0.428296 0.5
173 1 0.300009 0.380737 0.5
174 1 0.325012 0.428294 0.5
175 1 0.350014 0.380735 0.5
176 1 0.375013 0.428292 0.5
177 1 0.400015 0.380734 0.5
178 1 0.425009 0.428296 0.5
179 1 0.450013 0.380737 0.5
180 1 0.475002 0.4283 0.5
410 3 0.450049 0.951582 0.5
202 1 0.0249985 0.523404 0.5
203 1 0.0499994 0.475854 0.5
204 1 0.075 0.523406 0.5
205 1 0.100001 0.475854 0.5
206 1 0.125002 0.523404 0.5
207 1 0.150002 0.475853 0.5
208 1 0.175004 0.523404 0.5
209 1 0.200004 0.475852 0.5
210 1 0.225005 0.523403 0.5
211 1 0.250007 0.47585 0.5
212 1 0.275002 0.523403 0.5
213 1 0.300008 0.475849 0.5
214 1 0.324995 0.523406 0.5
215 1 0.350004 0.475849 0.5
216 1 0.374989 0.523409 0.5
217 1 0.399999 0.475853 0.5
218 1 0.424989 0.523404 0.5
219 1 0.449996 0.475853 0.5
220 1 0.474993 0.523399 0.5
402 1 0.0500095 0.95156 0.5
242 1 0.0249956 0.61851 0.5
243 1 0.0499984 0.570961 0.5
244 1 0.075 0.618511 0.5
245 1 0.100002 0.570961 0.5
246 1 0.125004 0.61851 0.5
247 1 0.150005 0.570961 0.5
248 1 0.175003 0.618512 0.5
249 1 0.200003 0.570961 0.5
250 1 0.224995 0.618518 0.5
251 1 0.249997 0.570964 0.5
252 1 0.274984 0.618525 0.5
253 1 0.299988 0.570969 0.5
254 1 0.324976 0.618525 0.5
255 1 0.349981 0.570969 0.5
256 1 0.374979 0.61852 0.5
257 1 0.399983 0.570964 0.5
258 1 0.424985 0.61851 0.5
259 1 0.449988 0.570956 0.5
260 1 0.474991 0.618504 0.5
409 1 0.400035 0.951561 0.5
282 1 0.024998 0.713607 0.5
283 1 0.0499969 0.666059 0.5
284 1 0.075 0.713602 0.5
285 1 0.100003 0.666059 0.5
286 1 0.125002 0.713607 0.5
287 1 0.150003 0.666063 0.5
288 1 0.174995 0.713619 0.5
289 1 0.199995 0.666073 0.5
290 1 0.224983 0.713632 0.5
291 1 0.249982 0.666081 0.5
292 1 0.274976 0.713635 0.5
293 1 0.299974 0.666082 0.5
294 1 0.324978 0.713629 0.5
295 1 0.349977 0.666077 0.5
296 1 0.374984 0.71362 0.5
297 1 0.399983 0.666067 0.5
298 1 0.42499 0.713614 0.5
299 1 0.449989 0.666062 0.5
300 1 0.474995 0.713609 0.5
321 1 3.64377e-06 0.761169 0.5
322 1 0.025002 0.80872 0.5
323 1 0.0499996 0.761154 0.5
324 1 0.075 0.808709 0.5
325 1 0.1 0.761154 0.5
326 1 0.124998 0.80872 0.5
327 1 0.149996 0.761169 0.5
328 1 0.174989 0.808741 0.5
329 1 0.199986 0.761185 0.5
330 1 0.224981 0.808753 0.5
331 1 0.249978 0.761192 0.5
332 1 0.274982 0.80875 0.5
333 1 0.29998 0.761186 0.5
334 1 0.32499 0.808738 0.5
335 1 0.349986 0.761178 0.5
336 1 0.375003 0.80873 0.5
337 1 0.399995 0.761172 0.5
338 1 0.425016 0.808727 0.5
339 1 0.450003 0.761162 0.5
340 1 0.475017 0.808719 0.5
408 1 0.350024 0.951568 0.5
362 1 0.0250069 0.903824 0.5
363 1 0.0500014 0.856262 0.5
364 1 0.075 0.903807 0.5
365 1 0.0999986 0.856262 0.5
366 1 0.124993 0.903824 0.5
367 1 0.149994 0.856288 0.5
368 1 0.174988 0.903856 0.5
369 1 0.199985 0.856308 0.5
370 1 0.224986 0.903865 0.5
371 1 0.249982 0.856305 0.5
372 1 0.274994 0.903844 0.5
373 1 0.299993 0.856292 0.5
374 1 0.32501 0.903827 0.5
375 1 0.350007 0.85628 0.5
376 1 0.375023 0.90382 0.5
377 1 0.400022 0.856274 0.5
378 1 0.425037 0.903825 0.5
379 3 0.450032 0.856281 0.5
380 3 0.475046 0.903861 0.5
407 1 0.300014 0.951574 0.5
261 1 0.499993 0.570951 0.5
401 1 2.0232e-05 0.951591 0.5
361 1 6.38311e-06 0.856288 0.5
301 1 0.499992 0.666055 0.5
21 2 0.500002 0.000126354 0.5
22 2 0.525001 0.0478705 0.5
23 2 0.550001 0.000127081 0.5
24 2 0.575 0.0478707 0.5
25 2 0.599999 0.000127081 0.5
26 2 0.624999 0.0478705 0.5
27 2 0.649998 0.000126354 0.5
28 2 0.674998 0.0478699 0.5
29 2 0.699997 0.000124846 0.5
30 2 0.724997 0.0478689 0.5
31 2 0.749996 0.000122496 0.5
32 2 0.774996 0.0478675 0.5
33 2 0.799996 0.000119312 0.5
34 2 0.824995 0.0478658 0.5
35 2 0.849996 0.000115444 0.5
36 2 0.874995 0.0478637 0.5
37 2 0.899996 0.000111231 0.5
38 2 0.924995 0.0478612 0.5
39 2 0.949997 0.000107205 0.5
40 2 0.974996 0.0478587 0.5
61 2 0.500002 0.0954176 0.5
62 1 0.525001 0.142968 0.5
63 2 0.550001 0.0954177 0.5
64 1 0.575 0.142968 0.5
65 2 0.599999 0.0954177 0.5
66 1 0.624999 0.142968 0.5
67 2 0.649998 0.0954176 0.5
68 1 0.674997 0.142969 0.5
69 2 0.699997 0.0954173 0.5
70 1 0.724996 0.142969 0.5
71 2 0.749996 0.0954169 0.5
72 1 0.774994 0.142969 0.5
73 2 0.799995 0.0954164 0.5
74 1 0.824993 0.142969 0.5
75 2 0.849994 0.0954158 0.5
76 1 0.874993 0.142969 0.5
77 2 0.899993 0.0954152 0.5
78 1 0.924993 0.14297 0.5
79 2 0.949994 0.0954149 0.5
80 1 0.974995 0.142972 0.5
101 1 0.500002 0.190528 0.5
102 1 0.525002 0.23808 0.5
103 1 0.550001 0.190528 0.5
104 1 0.575 0.238079 0.5
105 1 0.599999 0.190528 0.5
106 1 0.624998 0.23808 0.5
107 1 0.649998 0.190528 0.5
108 1 0.674995 0.238081 0.5
109 1 0.699996 0.190528 0.5
110 1 0.724993 0.238081 0.5
111 1 0.749994 0.190528 0.5
112 1 0.774992 0.238081 0.5
113 1 0.799993 0.190528 0.5
114 1 0.824991 0.238081 0.5
115 1 0.849992 0.190529 0.5
116 1 0.874992 0.238083 0.5
117 1 0.899993 0.19053 0.5
118 1 0.924994 0.238087 0.5
119 1 0.949995 0.190533 0.5
120 1 0.974997 0.23809 0.5
420 1 0.950014 0.951618 0.5
142 1 0.525006 0.333185 0.5
143 1 0.550003 0.285628 0.5
144 1 0.575 0.333187 0.5
145 1 0.599997 0.285628 0.5
146 1 0.624994 0.333185 0.5
147 1 0.649994 0.285628 0.5
148 1 0.674989 0.333181 0.5
149 1 0.699992 0.285628 0.5
150 1 0.724987 0.33318 0.5
151 1 0.74999 0.285628 0.5
152 1 0.774988 0.33318 0.5
153 1 0.79999 0.285629 0.5
154 1 0.824989 0.333183 0.5
155 1 0.849991 0.285631 0.5
156 1 0.874993 0.333186 0.5
157 1 0.899994 0.285635 0.5
158 1 0.924995 0.333189 0.5
159 1 0.949996 0.285638 0.5
160 1 0.974998 0.333192 0.5
419 1 0.899999 0.951603 0.5
182 1 0.525001 0.4283 0.5
183 1 0.550001 0.380742 0.5
184 1 0.575 0.428299 0.5
185 1 0.599999 0.380742 0.5
186 1 0.624999 0.4283 0.5
187 1 0.649993 0.380741 0.5
188 1 0.674998 0.4283 0.5
189 1 0.699987 0.380737 0.5
190 1 0.724991 0.428296 0.5
191 1 0.749985 0.380734 0.5
192 1 0.774987 0.428292 0.5
193 1 0.799986 0.380735 0.5
194 1 0.824988 0.428294 0.5
195 1 0.849991 0.380737 0.5
196 1 0.874992 0.428296 0.5
197 1 0.899994 0.38074 0.5
198 1 0.924995 0.428299 0.5
199 1 0.949997 0.380742 0.5
200 1 0.974998 0.428301 0.5
418 1 0.849986 0.951574 0.5
222 1 0.524995 0.523396 0.5
223 1 0.549999 0.47585 0.5
224 1 0.575 0.523394 0.5
225 1 0.600001 0.47585 0.5
226 1 0.625005 0.523396 0.5
227 1 0.650003 0.47585 0.5
228 1 0.675007 0.523399 0.5
229 1 0.700004 0.475853 0.5
230 1 0.725011 0.523404 0.5
231 1 0.750001 0.475853 0.5
232 1 0.775011 0.523409 0.5
233 1 0.799996 0.475849 0.5
234 1 0.825005 0.523406 0.5
235 1 0.849992 0.475849 0.5
236 1 0.874998 0.523403 0.5
237 1 0.899993 0.47585 0.5
238 1 0.924995 0.523403 0.5
239 1 0.949996 0.475852 0.5
240 1 0.974996 0.523404 0.5
281 1 0.999997 0.666063 0.5
262 1 0.524994 0.618501 0.5
263 1 0.549998 0.570949 0.5
264 1 0.575 0.6185 0.5
265 1 0.600002 0.570949 0.5
266 1 0.625006 0.618501 0.5
267 1 0.650007 0.570951 0.5
268 1 0.675009 0.618504 0.5
269 1 0.700012 0.570956 0.5
270 1 0.725015 0.61851 0.5
271 1 0.750017 0.570964 0.5
272 1 0.775021 0.61852 0.5
273 1 0.800019 0.570969 0.5
274 1 0.825024 0.618525 0.5
275 1 0.850012 0.570969 0.5
276 1 0.875016 0.618525 0.5
277 1 0.900003 0.570964 0.5
278 1 0.925005 0.618518 0.5
279 1 0.949997 0.570961 0.5
280 1 0.974997 0.618512 0.5
411 3 0.500093 0.951661 0.5
302 1 0.525 0.713603 0.5
303 1 0.549997 0.66605 0.5
304 1 0.575 0.713598 0.5
305 1 0.600003 0.66605 0.5
306 1 0.625 0.713603 0.5
307 1 0.650008 0.666055 0.5
308 1 0.675005 0.713609 0.5
309 1 0.700011 0.666062 0.5
310 1 0.72501 0.713614 0.5
311 1 0.750017 0.666067 0.5
312 1 0.775016 0.71362 0.5
313 1 0.800023 0.666077 0.5
314 1 0.825022 0.713629 0.5
315 1 0.850026 0.666082 0.5
316 1 0.875024 0.713635 0.5
317 1 0.900018 0.666081 0.5
318 1 0.925017 0.713632 0.5
319 1 0.950005 0.666073 0.5
320 1 0.975005 0.713619 0.5
417 1 0.799976 0.951568 0.5
342 1 0.525012 0.808722 0.5
343 1 0.550004 0.761153 0.5
344 1 0.575 0.808726 0.5
345 1 0.599996 0.761153 0.5
346 1 0.624988 0.808722 0.5
347 1 0.649991 0.761154 0.5
348 1 0.674983 0.808719 0.5
349 1 0.699997 0.761162 0.5
350 1 0.724984 0.808727 0.5
351 1 0.750005 0.761172 0.5
352 1 0.774997 0.80873 0.5
353 1 0.800014 0.761178 0.5
354 1 0.82501 0.808738 0.5
355 1 0.85002 0.761186 0.5
356 1 0.875018 0.80875 0.5
357 1 0.900022 0.761192 0.5
358 1 0.925019 0.808753 0.5
359 1 0.950014 0.761185 0.5
360 1 0.975011 0.808741 0.5
381 3 0.500017 0.856279 0.5
382 3 0.525009 0.90384 0.5
383 3 0.550006 0.856284 0.5
384 3 0.575 0.903855 0.5
385 3 0.599994 0.856284 0.5
386 3 0.624991 0.90384 0.5
387 3 0.649983 0.856279 0.5
388 3 0.674954 0.903861 0.5
389 3 0.699968 0.856281 0.5
390 3 0.724963 0.903825 0.5
391 3 0.749978 0.856274 0.5
392 3 0.774977 0.90382 0.5
393 1 0.799993 0.85628 0.5
394 1 0.82499 0.903827 0.5
395 1 0.850007 0.856292 0.5
396 1 0.875006 0.903844 0.5
397 1 0.900018 0.856305 0.5
398 1 0.925014 0.903865 0.5
399 1 0.950015 0.856308 0.5
400 1 0.975012 0.903856 0.5
421 3 0.578909 0.999898 0.5
412 3 0.549989 0.951478 0.5
413 3 0.600011 0.951478 0.5
414 3 0.649907 0.951661 0.5
415 3 0.699951 0.951582 0.5
416 3 0.749965 0.951561 0.5
201 1 0.999998 0.475853 0.5
1 2 0.999998 0.000104004 0.5
341 1 0.500009 0.761154 0.5
41 2 0.999996 0.0954148 0.5
181 1 0.500007 0.380741 0.5
141 1 0.500006 0.285628 0.5
81 1 0.999997 0.190536 0.5
121 1 0.999998 0.285641 0.5
161 1 0.999999 0.380745 0.5
241 1 0.999995 0.570961 0.5
ITEM: TIMESTEP
78
ITEM: NUMBER OF ATOMS
421
ITEM: BOX BOUNDS pp ss pp
0.0000000000000000e+00 2.2653923264628304e+01
2.1879574711865565e-01 2.0374739656923339e+01
-2.8317404080785380e-01 2.8317404080785380e-01
ITEM: ATOMS id type xs ys zs
221 1 0.500048 0.47588 0.5
2 2 0.0249978 0.0478569 0.5
3 2 0.0499993 0.000102224 0.5
4 2 0.075 0.0478563 0.5
5 2 0.100001 0.000102224 0.5
6 2 0.125002 0.0478569 0.5
7 2 0.150002 0.000104004 0.5
8 2 0.175004 0.0478587 0.5
9 2 0.200003 0.000107205 0.5
10 2 0.225005 0.0478612 0.5
11 2 0.250004 0.000111231 0.5
12 2 0.275005 0.0478637 0.5
13 2 0.300004 0.000115444 0.5
14 2 0.325005 0.0478658 0.5
15 2 0.350004 0.000119312 0.5
16 2 0.375004 0.0478675 0.5
17 2 0.400004 0.000122496 0.5
18 2 0.425003 0.0478689 0.5
19 2 0.450003 0.000124846 0.5
20 2 0.475002 0.0478699 0.5
406 1 0.250267 0.951652 0.5
42 1 0.0250115 0.142967 0.5
43 2 0.0499985 0.0954148 0.5
44 1 0.0750137 0.142968 0.5
45 2 0.100002 0.0954148 0.5
46 1 0.125015 0.142969 0.5
47 2 0.150004 0.0954148 0.5
48 1 0.175016 0.14297 0.5
49 2 0.200006 0.0954149 0.5
50 1 0.225015 0.142971 0.5
51 2 0.250007 0.0954152 0.5
52 1 0.275013 0.142973 0.5
53 2 0.300006 0.0954158 0.5
54 1 0.325011 0.142973 0.5
55 2 0.350005 0.0954164 0.5
56 1 0.375008 0.142974 0.5
57 2 0.400004 0.0954169 0.5
58 1 0.425005 0.142974 0.5
59 2 0.450003 0.0954173 0.5
60 1 0.475003 0.142973 0.5
405 1 0.200231 0.951612 0.5
82 1 0.0250384 0.23807 0.5
83 1 0.0500261 0.19052 0.5
84 1 0.0750403 0.238075 0.5
85 1 0.100027 0.190522 0.5
86 1 0.12504 0.238079 0.5
87 1 0.150027 0.190525 0.5
88 1 0.175039 0.238084 0.5
89 1 0.200026 0.190528 0.5
90 1 0.225035 0.238088 0.5
91 1 0.250023 0.19053 0.5
92 1 0.27503 0.238091 0.5
93 1 0.300019 0.190532 0.5
94 1 0.325024 0.238092 0.5
95 1 0.350015 0.190532 0.5
96 1 0.375018 0.238091 0.5
97 1 0.40001 0.190532 0.5
98 1 0.425012 0.23809 0.5
99 1 0.450006 0.19053 0.5
100 1 0.475008 0.238087 0.5
404 1 0.150207 0.951576 0.5
122 1 0.025067 0.333172 0.5
123 1 0.0500536 0.285625 0.5
124 1 0.0750692 0.333182 0.5
125 1 0.100054 0.285632 0.5
126 1 0.125069 0.333192 0.5
127 1 0.150053 0.285639 0.5
128 1 0.175066 0.333201 0.5
129 1 0.200049 0.285645 0.5
130 1 0.225061 0.333209 0.5
131 1 0.250044 0.28565 0.5
132 1 0.275053 0.333214 0.5
133 1 0.300037 0.285653 0.5
134 1 0.325044 0.333216 0.5
135 1 0.350029 0.285653 0.5
136 1 0.375035 0.333215 0.5
137 1 0.400022 0.285651 0.5
138 1 0.425026 0.333211 0.5
139 1 0.450015 0.285647 0.5
140 1 0.475019 0.333204 0.5
403 1 0.100193 0.951544 0.5
162 1 0.0250997 0.428272 0.5
163 1 0.0500843 0.380729 0.5
164 1 0.0751024 0.428288 0.5
165 1 0.100085 0.380742 0.5
166 1 0.125103 0.428305 0.5
167 1 0.150084 0.380755 0.5
168 1 0.1751 0.428321 0.5
169 1 0.200079 0.380767 0.5
170 1 0.225094 0.428335 0.5
171 1 0.250072 0.380775 0.5
172 1 0.275086 0.428344 0.5
173 1 0.300063 0.38078 0.5
174 1 0.325075 0.428348 0.5
175 1 0.350052 0.380781 0.5
176 1 0.375062 0.428346 0.5
177 1 0.400042 0.380777 0.5
178 1 0.425049 0.428339 0.5
179 1 0.450032 0.380769 0.5
180 1 0.475039 0.428326 0.5
410 3 0.450649 0.951915 0.5
202 1 0.0251356 0.523369 0.5
203 1 0.0501192 0.475831 0.5
204 1 0.075139 0.523393 0.5
205 1 0.100121 0.475851 0.5
206 1 0.125141 0.523418 0.5
207 1 0.150121 0.475872 0.5
208 1 0.17514 0.523442 0.5
209 1 0.200117 0.475891 0.5
210 1 0.225137 0.523463 0.5
211 1 0.250111 0.475906 0.5
212 1 0.27513 0.52348 0.5
213 1 0.300101 0.475915 0.5
214 1 0.325119 0.523489 0.5
215 1 0.350088 0.475917 0.5
216 1 0.375104 0.523488 0.5
217 1 0.400073 0.475912 0.5
218 1 0.425087 0.523477 0.5
219 1 0.450059 0.475899 0.5
220 1 0.475072 0.523457 0.5
402 1 0.050189 0.951515 0.5
242 1 0.0251708 0.618464 0.5
243 1 0.0501556 0.57093 0.5
244 1 0.0751747 0.618495 0.5
245 1 0.100159 0.570959 0.5
246 1 0.125179 0.618527 0.5
247 1 0.150161 0.570988 0.5
248 1 0.175183 0.61856 0.5
249 1 0.200162 0.571015 0.5
250 1 0.225186 0.618591 0.5
251 1 0.250159 0.571039 0.5
252 1 0.275186 0.618618 0.5
253 1 0.300153 0.571057 0.5
254 1 0.325181 0.618637 0.5
255 1 0.350141 0.571065 0.5
256 1 0.375168 0.618643 0.5
257 1 0.400124 0.571059 0.5
258 1 0.425148 0.618631 0.5
259 1 0.450105 0.571041 0.5
260 1 0.475126 0.618602 0.5
409 1 0.400495 0.951821 0.5
282 1 0.0251985 0.713558 0.5
283 1 0.0501878 0.666028 0.5
284 1 0.0752023 0.713593 0.5
285 1 0.100193 0.666062 0.5
286 1 0.12521 0.71363 0.5
287 1 0.1502 0.666098 0.5
288 1 0.175221 0.713669 0.5
289 1 0.200207 0.666134 0.5
290 1 0.225234 0.713709 0.5
291 1 0.250215 0.666169 0.5
292 1 0.275248 0.713749 0.5
293 1 0.300218 0.6662 0.5
294 1 0.325258 0.713785 0.5
295 1 0.350215 0.666221 0.5
296 1 0.37526 0.713811 0.5
297 1 0.400202 0.666225 0.5
298 1 0.425247 0.713813 0.5
299 1 0.450178 0.666204 0.5
300 1 0.475216 0.713775 0.5
321 1 0.000207371 0.761089 0.5
322 1 0.025211 0.808653 0.5
323 1 0.0502081 0.761123 0.5
324 1 0.0752139 0.808687 0.5
325 1 0.100214 0.761159 0.5
326 1 0.125224 0.808725 0.5
327 1 0.150226 0.761198 0.5
328 1 0.175241 0.808765 0.5
329 1 0.200243 0.76124 0.5
330 1 0.225265 0.808809 0.5
331 1 0.250264 0.761285 0.5
332 1 0.275296 0.808858 0.5
333 1 0.300287 0.76133 0.5
334 1 0.325333 0.808911 0.5
335 1 0.350308 0.761374 0.5
336 1 0.37537 0.808964 0.5
337 1 0.400318 0.761406 0.5
338 1 0.425397 0.80901 0.5
339 1 0.450307 0.761407 0.5
340 1 0.47539 0.809016 0.5
408 1 0.350391 0.951753 0.5
362 1 0.0252027 0.903751 0.5
363 1 0.0502097 0.856216 0.5
364 1 0.0752037 0.903781 0.5
365 1 0.100216 0.856251 0.5
366 1 0.125214 0.903814 0.5
367 1 0.15023 0.856288 0.5
368 1 0.175233 0.903851 0.5
369 1 0.200254 0.856329 0.5
370 1 0.225263 0.903892 0.5
371 1 0.250287 0.856376 0.5
372 1 0.275306 0.903939 0.5
373 1 0.300331 0.856428 0.5
374 1 0.325364 0.903994 0.5
375 1 0.350385 0.856488 0.5
376 1 0.375441 0.904061 0.5
377 1 0.400447 0.856556 0.5
378 1 0.425541 0.904145 0.5
379 3 0.450504 0.856627 0.5
380 3 0.475662 0.904258 0.5
407 1 0.300319 0.951698 0.5
261 1 0.500088 0.571011 0.5
401 1 0.000193838 0.951489 0.5
361 1 0.000211684 0.856184 0.5
301 1 0.500152 0.666158 0.5
21 2 0.500002 0.000126354 0.5
22 2 0.525001 0.0478705 0.5
23 2 0.550001 0.000127081 0.5
24 2 0.575 0.0478707 0.5
25 2 0.599999 0.000127081 0.5
26 2 0.624999 0.0478705 0.5
27 2 0.649998 0.000126354 0.5
28 2 0.674998 0.0478699 0.5
29 2 0.699997 0.000124846 0.5
30 2 0.724997 0.0478689 0.5
31 2 0.749996 0.000122496 0.5
32 2 0.774996 0.0478675 0.5
33 2 0.799996 0.000119312 0.5
34 2 0.824995 0.0478658 0.5
35 2 0.849996 0.000115444 0.5
36 2 0.874995 0.0478637 0.5
37 2 0.899996 0.000111231 0.5
38 2 0.924995 0.0478612 0.5
39 2 0.949997 0.000107205 0.5
40 2 0.974996 0.0478587 0.5
61 2 0.500002 0.0954176 0.5
62 1 0.525001 0.142972 0.5
63 2 0.550001 0.0954177 0.5
64 1 0.575 0.142971 0.5
65 2 0.599999 0.0954177 0.5
66 1 0.624999 0.14297 0.5
67 2 0.649998 0.0954176 0.5
68 1 0.674999 0.142969 0.5
69 2 0.699997 0.0954173 0.5
70 1 0.725 0.142968 0.5
71 2 0.749996 0.0954169 0.5
72 1 0.775001 0.142968 0.5
73 2 0.799995 0.0954164 0.5
74 1 0.825002 0.142967 0.5
75 2 0.849994 0.0954158 0.5
76 1 0.875004 0.142966 0.5
77 2 0.899993 0.0954152 0.5
78 1 0.925006 0.142966 0.5
79 2 0.949994 0.0954149 0.5
80 1 0.975009 0.142966 0.5
101 1 0.500003 0.190529 0.5
102 1 0.525004 0.238083 0.5
103 1 0.550001 0.190526 0.5
104 1 0.575002 0.238079 0.5
105 1 0.6 0.190524 0.5
106 1 0.625003 0.238074 0.5
107 1 0.650001 0.190521 0.5
108 1 0.675005 0.23807 0.5
109 1 0.700002 0.190519 0.5
110 1 0.725008 0.238067 0.5
111 1 0.750005 0.190517 0.5
112 1 0.775013 0.238064 0.5
113 1 0.800008 0.190516 0.5
114 1 0.825019 0.238063 0.5
115 1 0.850012 0.190515 0.5
116 1 0.875025 0.238063 0.5
117 1 0.900016 0.190515 0.5
118 1 0.92503 0.238064 0.5
119 1 0.95002 0.190516 0.5
120 1 0.975035 0.238067 0.5
420 1 0.950207 0.951463 0.5
142 1 0.525013 0.333195 0.5
143 1 0.550007 0.285636 0.5
144 1 0.575011 0.333186 0.5
145 1 0.600006 0.285629 0.5
146 1 0.625012 0.333176 0.5
147 1 0.650008 0.285622 0.5
148 1 0.675016 0.333167 0.5
149 1 0.700012 0.285617 0.5
150 1 0.725022 0.33316 0.5
151 1 0.750017 0.285612 0.5
152 1 0.77503 0.333155 0.5
153 1 0.800024 0.285609 0.5
154 1 0.825039 0.333153 0.5
155 1 0.850032 0.285609 0.5
156 1 0.875048 0.333154 0.5
157 1 0.900039 0.28561 0.5
158 1 0.925056 0.333157 0.5
159 1 0.950046 0.285613 0.5
160 1 0.975063 0.333164 0.5
419 1 0.90023 0.951439 0.5
182 1 0.525031 0.428311 0.5
183 1 0.550019 0.380746 0.5
184 1 0.575028 0.428293 0.5
185 1 0.600018 0.380733 0.5
186 1 0.625029 0.428275 0.5
187 1 0.650021 0.38072 0.5
188 1 0.675034 0.42826 0.5
189 1 0.700027 0.380709 0.5
190 1 0.725043 0.428247 0.5
191 1 0.750036 0.380701 0.5
192 1 0.775054 0.428238 0.5
193 1 0.800046 0.380696 0.5
194 1 0.825066 0.428235 0.5
195 1 0.850057 0.380695 0.5
196 1 0.875077 0.428238 0.5
197 1 0.900066 0.380699 0.5
198 1 0.925087 0.428245 0.5
199 1 0.950075 0.380706 0.5
200 1 0.975094 0.428257 0.5
418 1 0.850263 0.951414 0.5
222 1 0.525061 0.52343 0.5
223 1 0.550041 0.475858 0.5
224 1 0.575055 0.5234 0.5
225 1 0.60004 0.475835 0.5
226 1 0.625057 0.523371 0.5
227 1 0.650044 0.475813 0.5
228 1 0.675065 0.523344 0.5
229 1 0.700053 0.475794 0.5
230 1 0.725077 0.523324 0.5
231 1 0.750064 0.475781 0.5
232 1 0.775091 0.523312 0.5
233 1 0.800077 0.475774 0.5
234 1 0.825104 0.523309 0.5
235 1 0.85009 0.475774 0.5
236 1 0.875115 0.523315 0.5
237 1 0.9001 0.475782 0.5
238 1 0.925124 0.523329 0.5
239 1 0.950109 0.475794 0.5
240 1 0.975131 0.523347 0.5
281 1 1.00018 0.665995 0.5
262 1 0.525108 0.618558 0.5
263 1 0.550077 0.570974 0.5
264 1 0.575099 0.618508 0.5
265 1 0.600075 0.570935 0.5
266 1 0.625102 0.618459 0.5
267 1 0.650081 0.570898 0.5
268 1 0.675114 0.618417 0.5
269 1 0.700093 0.570869 0.5
270 1 0.72513 0.618387 0.5
271 1 0.750108 0.570849 0.5
272 1 0.775145 0.618373 0.5
273 1 0.800122 0.570842 0.5
274 1 0.825155 0.618376 0.5
275 1 0.850133 0.570847 0.5
276 1 0.875161 0.618389 0.5
277 1 0.900141 0.57086 0.5
278 1 0.925165 0.61841 0.5
279 1 0.950147 0.57088 0.5
280 1 0.975168 0.618435 0.5
411 3 0.500902 0.952086 0.5
302 1 0.525185 0.713705 0.5
303 1 0.550134 0.666096 0.5
304 1 0.575168 0.713617 0.5
305 1 0.60013 0.66603 0.5
306 1 0.625173 0.713532 0.5
307 1 0.65014 0.665969 0.5
308 1 0.675194 0.713464 0.5
309 1 0.700158 0.665925 0.5
310 1 0.725214 0.713428 0.5
311 1 0.750175 0.665902 0.5
312 1 0.775218 0.713428 0.5
313 1 0.800183 0.665903 0.5
314 1 0.825214 0.713445 0.5
315 1 0.850185 0.665917 0.5
316 1 0.875208 0.713468 0.5
317 1 0.900185 0.665939 0.5
318 1 0.925202 0.713495 0.5
319 1 0.950184 0.665966 0.5
320 1 0.975198 0.713526 0.5
417 1 0.800309 0.951389 0.5
342 1 0.525325 0.808902 0.5
343 1 0.550226 0.761234 0.5
344 1 0.575283 0.808729 0.5
345 1 0.600218 0.761112 0.5
346 1 0.625299 0.808563 0.5
347 1 0.650239 0.761008 0.5
348 1 0.675343 0.808454 0.5
349 1 0.700267 0.760947 0.5
350 1 0.725324 0.80847 0.5
351 1 0.750265 0.760951 0.5
352 1 0.775294 0.8085 0.5
353 1 0.800251 0.760971 0.5
354 1 0.825266 0.80853 0.5
355 1 0.850235 0.760998 0.5
356 1 0.875243 0.808559 0.5
357 1 0.900221 0.761026 0.5
358 1 0.925226 0.808589 0.5
359 1 0.950212 0.761056 0.5
360 1 0.975215 0.80862 0.5
381 3 0.500516 0.856652 0.5
382 3 0.525736 0.904342 0.5
383 3 0.550403 0.85643 0.5
384 3 0.575532 0.903866 0.5
385 3 0.600379 0.856151 0.5
386 3 0.625677 0.90337 0.5
387 3 0.650461 0.855934 0.5
388 3 0.675509 0.903526 0.5
389 3 0.700399 0.855988 0.5
390 3 0.725403 0.903571 0.5
391 3 0.750341 0.856029 0.5
392 3 0.775331 0.90361 0.5
393 1 0.800298 0.856066 0.5
394 1 0.825287 0.903639 0.5
395 1 0.850265 0.856096 0.5
396 1 0.875252 0.903667 0.5
397 1 0.900239 0.856125 0.5
398 1 0.925227 0.903694 0.5
399 1 0.950221 0.856154 0.5
400 1 0.97521 0.903722 0.5
421 3 0.578483 0.999479 0.5
412 3 0.551163 0.952287 0.5
413 3 0.601082 0.950812 0.5
414 3 0.650636 0.951318 0.5
415 3 0.700476 0.951331 0.5
416 3 0.750371 0.951365 0.5
201 1 1.00012 0.475811 0.5
1 2 0.999998 0.000104004 0.5
341 1 0.500264 0.761344 0.5
41 2 0.999996 0.0954148 0.5
181 1 0.500024 0.380759 0.5
141 1 0.50001 0.285642 0.5
81 1 1.00002 0.190518 0.5
121 1 1.00005 0.285618 0.5
161 1 1.00008 0.380716 0.5
241 1 1.00015 0.570904 0.5
ITEM: TIMESTEP
107
ITEM: NUMBER OF ATOMS
421
ITEM: BOX BOUNDS pp ss pp
0.0000000000000000e+00 2.2653923264628304e+01
2.1879574711865565e-01 2.0366295328217436e+01
-2.8317404080785380e-01 2.8317404080785380e-01
ITEM: ATOMS id type xs ys zs
361 1 0.000281936 0.85654 0.5
2 2 0.0249978 0.047877 0.5
3 2 0.0499993 0.000102266 0.5
4 2 0.075 0.0478763 0.5
5 2 0.100001 0.000102266 0.5
6 2 0.125002 0.047877 0.5
7 2 0.150002 0.000104047 0.5
8 2 0.175004 0.0478788 0.5
9 2 0.200003 0.00010725 0.5
10 2 0.225005 0.0478812 0.5
11 2 0.250004 0.000111278 0.5
12 2 0.275005 0.0478837 0.5
13 2 0.300004 0.000115493 0.5
14 2 0.325005 0.0478859 0.5
15 2 0.350004 0.000119362 0.5
16 2 0.375004 0.0478876 0.5
17 2 0.400004 0.000122547 0.5
18 2 0.425003 0.0478889 0.5
19 2 0.450003 0.000124898 0.5
20 2 0.475002 0.0478899 0.5
406 1 0.250337 0.952043 0.5
42 1 0.0250191 0.143026 0.5
43 2 0.0499985 0.0954548 0.5
44 1 0.0750213 0.143027 0.5
45 2 0.100002 0.0954548 0.5
46 1 0.125023 0.143028 0.5
47 2 0.150004 0.0954548 0.5
48 1 0.175023 0.143029 0.5
49 2 0.200006 0.0954549 0.5
50 1 0.225023 0.143031 0.5
51 2 0.250007 0.0954552 0.5
52 1 0.275021 0.143032 0.5
53 2 0.300006 0.0954558 0.5
54 1 0.325018 0.143032 0.5
55 2 0.350005 0.0954564 0.5
56 1 0.375016 0.143033 0.5
57 2 0.400004 0.0954569 0.5
58 1 0.425013 0.143033 0.5
59 2 0.450003 0.0954573 0.5
60 1 0.475011 0.143032 0.5
405 1 0.200302 0.952005 0.5
82 1 0.0250609 0.238169 0.5
83 1 0.0500412 0.190599 0.5
84 1 0.0750626 0.238173 0.5
85 1 0.100042 0.190601 0.5
86 1 0.125063 0.238177 0.5
87 1 0.150042 0.190604 0.5
88 1 0.175061 0.238182 0.5
89 1 0.200041 0.190606 0.5
90 1 0.225057 0.238185 0.5
91 1 0.250038 0.190608 0.5
92 1 0.275052 0.238188 0.5
93 1 0.300034 0.19061 0.5
94 1 0.325046 0.238189 0.5
95 1 0.35003 0.19061 0.5
96 1 0.37504 0.238188 0.5
97 1 0.400025 0.19061 0.5
98 1 0.425035 0.238187 0.5
99 1 0.450022 0.190608 0.5
100 1 0.47503 0.238184 0.5
404 1 0.150279 0.95197 0.5
122 1 0.0251032 0.33331 0.5
123 1 0.050083 0.285742 0.5
124 1 0.0751051 0.333319 0.5
125 1 0.100084 0.285749 0.5
126 1 0.125104 0.333329 0.5
127 1 0.150082 0.285756 0.5
128 1 0.175101 0.333337 0.5
129 1 0.200078 0.285762 0.5
130 1 0.225096 0.333345 0.5
131 1 0.250073 0.285766 0.5
132 1 0.275088 0.333349 0.5
133 1 0.300066 0.285769 0.5
134 1 0.32508 0.333351 0.5
135 1 0.350058 0.285769 0.5
136 1 0.375071 0.33335 0.5
137 1 0.400051 0.285767 0.5
138 1 0.425062 0.333345 0.5
139 1 0.450045 0.285763 0.5
140 1 0.475055 0.333339 0.5
403 1 0.100265 0.951939 0.5
162 1 0.0251476 0.428449 0.5
163 1 0.0501265 0.380886 0.5
164 1 0.07515 0.428465 0.5
165 1 0.100127 0.380898 0.5
166 1 0.12515 0.428481 0.5
167 1 0.150125 0.380911 0.5
168 1 0.175147 0.428496 0.5
169 1 0.200121 0.380922 0.5
170 1 0.225141 0.428508 0.5
171 1 0.250114 0.38093 0.5
172 1 0.275132 0.428517 0.5
173 1 0.300104 0.380934 0.5
174 1 0.325121 0.42852 0.5
175 1 0.350094 0.380934 0.5
176 1 0.375109 0.428518 0.5
177 1 0.400083 0.38093 0.5
178 1 0.425097 0.428511 0.5
179 1 0.450074 0.380923 0.5
180 1 0.475087 0.428499 0.5
410 3 0.450696 0.952293 0.5
202 1 0.0251929 0.523585 0.5
203 1 0.050172 0.476027 0.5
204 1 0.075196 0.523609 0.5
205 1 0.100174 0.476047 0.5
206 1 0.125197 0.523633 0.5
207 1 0.150173 0.476067 0.5
208 1 0.175196 0.523656 0.5
209 1 0.200169 0.476084 0.5
210 1 0.225193 0.523676 0.5
211 1 0.250162 0.476098 0.5
212 1 0.275185 0.523691 0.5
213 1 0.300152 0.476107 0.5
214 1 0.325174 0.523698 0.5
215 1 0.350139 0.476108 0.5
216 1 0.375159 0.523697 0.5
217 1 0.400125 0.476102 0.5
218 1 0.425143 0.523686 0.5
219 1 0.450112 0.476089 0.5
220 1 0.475129 0.523666 0.5
402 1 0.0502605 0.95191 0.5
242 1 0.0252349 0.61872 0.5
243 1 0.0502165 0.571166 0.5
244 1 0.0752385 0.61875 0.5
245 1 0.100219 0.571194 0.5
246 1 0.125242 0.618781 0.5
247 1 0.150221 0.571221 0.5
248 1 0.175246 0.618812 0.5
249 1 0.200221 0.571247 0.5
250 1 0.225248 0.618842 0.5
251 1 0.250218 0.57127 0.5
252 1 0.275247 0.618867 0.5
253 1 0.300211 0.571286 0.5
254 1 0.325241 0.618884 0.5
255 1 0.350199 0.571292 0.5
256 1 0.375228 0.618889 0.5
257 1 0.400182 0.571287 0.5
258 1 0.425209 0.618877 0.5
259 1 0.450164 0.571268 0.5
260 1 0.475187 0.618847 0.5
409 1 0.40055 0.952203 0.5
282 1 0.0252668 0.713854 0.5
283 1 0.0502542 0.666303 0.5
284 1 0.0752706 0.713888 0.5
285 1 0.100259 0.666337 0.5
286 1 0.125278 0.713924 0.5
287 1 0.150265 0.666371 0.5
288 1 0.175288 0.713961 0.5
289 1 0.200272 0.666405 0.5
290 1 0.2253 0.713999 0.5
291 1 0.250278 0.666439 0.5
292 1 0.275312 0.714037 0.5
293 1 0.300281 0.666467 0.5
294 1 0.325321 0.71407 0.5
295 1 0.350277 0.666486 0.5
296 1 0.375322 0.714093 0.5
297 1 0.400264 0.666489 0.5
298 1 0.425308 0.714093 0.5
299 1 0.45024 0.666467 0.5
300 1 0.475278 0.714056 0.5
321 1 0.000276684 0.761405 0.5
322 1 0.0252815 0.808988 0.5
323 1 0.0502779 0.761438 0.5
324 1 0.0752848 0.809022 0.5
325 1 0.100284 0.761474 0.5
326 1 0.125294 0.809058 0.5
327 1 0.150295 0.761511 0.5
328 1 0.175311 0.809098 0.5
329 1 0.200311 0.761551 0.5
330 1 0.225333 0.80914 0.5
331 1 0.25033 0.761593 0.5
332 1 0.275362 0.809186 0.5
333 1 0.300351 0.761636 0.5
334 1 0.325396 0.809235 0.5
335 1 0.350369 0.761676 0.5
336 1 0.375429 0.809285 0.5
337 1 0.400378 0.761706 0.5
338 1 0.425453 0.809327 0.5
339 1 0.450365 0.761705 0.5
340 1 0.475444 0.80933 0.5
408 1 0.350454 0.952138 0.5
362 1 0.0252737 0.904125 0.5
363 1 0.050281 0.856571 0.5
364 1 0.0752756 0.904156 0.5
365 1 0.100287 0.856605 0.5
366 1 0.125286 0.904188 0.5
367 1 0.150302 0.856641 0.5
368 1 0.175304 0.904224 0.5
369 1 0.200324 0.856681 0.5
370 1 0.225333 0.904264 0.5
371 1 0.250355 0.856725 0.5
372 1 0.275373 0.904308 0.5
373 1 0.300396 0.856775 0.5
374 1 0.325428 0.90436 0.5
375 1 0.350446 0.856831 0.5
376 1 0.375499 0.904423 0.5
377 1 0.400503 0.856895 0.5
378 1 0.425592 0.904503 0.5
379 3 0.450555 0.856962 0.5
380 3 0.475704 0.90461 0.5
407 1 0.300386 0.952087 0.5
401 1 0.000263778 0.951883 0.5
281 1 0.000251372 0.666272 0.5
241 1 0.000212767 0.57114 0.5
161 1 0.000123153 0.380874 0.5
121 1 8.02202e-05 0.285736 0.5
81 1 3.88456e-05 0.190596 0.5
201 1 0.000168182 0.476008 0.5
21 2 0.500002 0.000126407 0.5
22 2 0.525001 0.0478906 0.5