ITEM: TIMESTEP
0
ITEM: NUMBER OF ATOMS
421
ITEM: BOX BOUNDS pp ss pp
0.0000000000000000e+00 2.2653923264628304e+01
2.1879574711865565e-01 2.0476596262012407e+01
-2.8317404080785380e-01 2.8317404080785380e-01
ITEM: ATOMS id type xs ys zs
221 1 0.499997 0.473458 0.5
2 2 0.0249978 0.0476163 0.5
3 2 0.0499993 0.00010171 0.5
4 2 0.075 0.0476156 0.5
5 2 0.100001 0.00010171 0.5
6 2 0.125002 0.0476163 0.5
7 2 0.150002 0.000103481 0.5
8 2 0.175004 0.0476181 0.5
9 2 0.200003 0.000106666 0.5
10 2 0.225005 0.0476205 0.5
11 2 0.250004 0.000110672 0.5
12 2 0.275005 0.047623 0.5
13 2 0.300004 0.000114864 0.5
14 2 0.325005 0.0476252 0.5
15 2 0.350004 0.000118712 0.5
16 2 0.375004 0.0476269 0.5
17 2 0.400004 0.00012188 0.5
18 2 0.425003 0.0476282 0.5
19 2 0.450003 0.000124218 0.5
20 2 0.475002 0.0476292 0.5
406 1 0.250001 0.946819 0.5
42 1 0.0249972 0.142255 0.5
43 2 0.0499985 0.0949351 0.5
44 1 0.075 0.142255 0.5
45 2 0.100002 0.0949351 0.5
46 1 0.125003 0.142255 0.5
47 2 0.150004 0.0949351 0.5
48 1 0.175005 0.142253 0.5
49 2 0.200006 0.0949352 0.5
50 1 0.225007 0.142251 0.5
51 2 0.250007 0.0949355 0.5
52 1 0.275007 0.14225 0.5
53 2 0.300006 0.0949361 0.5
54 1 0.325007 0.14225 0.5
55 2 0.350005 0.0949367 0.5
56 1 0.375006 0.14225 0.5
57 2 0.400004 0.0949372 0.5
58 1 0.425004 0.14225 0.5
59 2 0.450003 0.0949375 0.5
60 1 0.475003 0.14225 0.5
405 1 0.199986 0.946833 0.5
82 1 0.0249986 0.236895 0.5
83 1 0.049999 0.18958 0.5
84 1 0.075 0.236896 0.5
85 1 0.100001 0.18958 0.5
86 1 0.125001 0.236895 0.5
87 1 0.150003 0.189578 0.5
88 1 0.175003 0.236893 0.5
89 1 0.200005 0.189575 0.5
90 1 0.225006 0.23689 0.5
91 1 0.250007 0.189572 0.5
92 1 0.275008 0.236886 0.5
93 1 0.300008 0.189571 0.5
94 1 0.325009 0.236884 0.5
95 1 0.350007 0.18957 0.5
96 1 0.375008 0.236883 0.5
97 1 0.400006 0.18957 0.5
98 1 0.425007 0.236884 0.5
99 1 0.450004 0.18957 0.5
100 1 0.475005 0.236883 0.5
404 1 0.14998 0.946807 0.5
122 1 0.024999 0.331518 0.5
123 1 0.0499995 0.284205 0.5
124 1 0.075 0.331519 0.5
125 1 0.100001 0.284205 0.5
126 1 0.125001 0.331518 0.5
127 1 0.150002 0.284204 0.5
128 1 0.175002 0.331517 0.5
129 1 0.200004 0.284202 0.5
130 1 0.225005 0.331514 0.5
131 1 0.250006 0.284199 0.5
132 1 0.275007 0.331511 0.5
133 1 0.300009 0.284195 0.5
134 1 0.325011 0.331508 0.5
135 1 0.35001 0.284193 0.5
136 1 0.375012 0.331505 0.5
137 1 0.40001 0.284192 0.5
138 1 0.425013 0.331505 0.5
139 1 0.450008 0.284192 0.5
140 1 0.475011 0.331506 0.5
403 1 0.0999905 0.946776 0.5
162 1 0.024999 0.426148 0.5
163 1 0.0499993 0.378831 0.5
164 1 0.075 0.426149 0.5
165 1 0.100001 0.378831 0.5
166 1 0.125001 0.426148 0.5
167 1 0.150001 0.37883 0.5
168 1 0.175002 0.426147 0.5
169 1 0.200003 0.378828 0.5
170 1 0.225005 0.426145 0.5
171 1 0.250006 0.378826 0.5
172 1 0.275008 0.426143 0.5
173 1 0.300009 0.378823 0.5
174 1 0.325012 0.42614 0.5
175 1 0.350014 0.378821 0.5
176 1 0.375013 0.426139 0.5
177 1 0.400015 0.37882 0.5
178 1 0.425009 0.426143 0.5
179 1 0.450013 0.378822 0.5
180 1 0.475002 0.426146 0.5
410 3 0.450049 0.946797 0.5
202 1 0.0249985 0.520773 0.5
203 1 0.0499994 0.473461 0.5
204 1 0.075 0.520774 0.5
205 1 0.100001 0.473461 0.5
206 1 0.125002 0.520773 0.5
207 1 0.150002 0.47346 0.5
208 1 0.175004 0.520773 0.5
209 1 0.200004 0.473459 0.5
210 1 0.225005 0.520771 0.5
211 1 0.250007 0.473457 0.5
212 1 0.275002 0.520771 0.5
213 1 0.300008 0.473456 0.5
214 1 0.324995 0.520774 0.5
215 1 0.350004 0.473457 0.5
216 1 0.374989 0.520777 0.5
217 1 0.399999 0.47346 0.5
218 1 0.424989 0.520772 0.5
219 1 0.449996 0.473461 0.5
220 1 0.474993 0.520768 0.5
402 1 0.0500095 0.946776 0.5
242 1 0.0249956 0.6154 0.5
243 1 0.0499984 0.56809 0.5
244 1 0.075 0.615401 0.5
245 1 0.100002 0.56809 0.5
246 1 0.125004 0.6154 0.5
247 1 0.150005 0.56809 0.5
248 1 0.175003 0.615402 0.5
249 1 0.200003 0.56809 0.5
250 1 0.224995 0.615408 0.5
251 1 0.249997 0.568093 0.5
252 1 0.274984 0.615415 0.5
253 1 0.299988 0.568098 0.5
254 1 0.324976 0.615415 0.5
255 1 0.349981 0.568099 0.5
256 1 0.374979 0.61541 0.5
257 1 0.399983 0.568093 0.5
258 1 0.424985 0.6154 0.5
259 1 0.449988 0.568086 0.5
260 1 0.474991 0.615394 0.5
409 1 0.400035 0.946776 0.5
282 1 0.024998 0.710019 0.5
283 1 0.0499969 0.66271 0.5
284 1 0.075 0.710014 0.5
285 1 0.100003 0.66271 0.5
286 1 0.125002 0.710019 0.5
287 1 0.150003 0.662714 0.5
288 1 0.174995 0.710031 0.5
289 1 0.199995 0.662724 0.5
290 1 0.224983 0.710044 0.5
291 1 0.249982 0.662732 0.5
292 1 0.274976 0.710046 0.5
293 1 0.299974 0.662733 0.5
294 1 0.324978 0.710041 0.5
295 1 0.349977 0.662728 0.5
296 1 0.374984 0.710032 0.5
297 1 0.399983 0.662718 0.5
298 1 0.42499 0.710026 0.5
299 1 0.449989 0.662713 0.5
300 1 0.474995 0.710021 0.5
321 1 3.64377e-06 0.757342 0.5
322 1 0.025002 0.804654 0.5
323 1 0.0499996 0.757327 0.5
324 1 0.075 0.804643 0.5
325 1 0.1 0.757327 0.5
326 1 0.124998 0.804654 0.5
327 1 0.149996 0.757342 0.5
328 1 0.174989 0.804675 0.5
329 1 0.199986 0.757358 0.5
330 1 0.224981 0.804686 0.5
331 1 0.249978 0.757364 0.5
332 1 0.274982 0.804683 0.5
333 1 0.29998 0.757359 0.5
334 1 0.32499 0.804672 0.5
335 1 0.349986 0.75735 0.5
336 1 0.375003 0.804664 0.5
337 1 0.399995 0.757345 0.5
338 1 0.425016 0.804661 0.5
339 1 0.450003 0.757335 0.5
340 1 0.475017 0.804653 0.5
408 1 0.350024 0.946783 0.5
362 1 0.0250069 0.899279 0.5
363 1 0.0500014 0.851957 0.5
364 1 0.075 0.899262 0.5
365 1 0.0999986 0.851957 0.5
366 1 0.124993 0.899279 0.5
367 1 0.149994 0.851982 0.5
368 1 0.174988 0.899311 0.5
369 1 0.199985 0.852002 0.5
370 1 0.224986 0.89932 0.5
371 1 0.249982 0.852 0.5
372 1 0.274994 0.8993 0.5
373 1 0.299993 0.851987 0.5
374 1 0.32501 0.899283 0.5
375 1 0.350007 0.851975 0.5
376 1 0.375023 0.899276 0.5
377 1 0.400022 0.851969 0.5
378 1 0.425037 0.89928 0.5
379 3 0.450032 0.851976 0.5
380 3 0.475046 0.899316 0.5
407 1 0.300014 0.94679 0.5
261 1 0.499993 0.568081 0.5
401 1 2.0232e-05 0.946807 0.5
361 1 6.38311e-06 0.851982 0.5
301 1 0.499992 0.662706 0.5
21 2 0.500002 0.000125719 0.5
22 2 0.525001 0.0476298 0.5
23 2 0.550001 0.000126442 0.5
24 2 0.575 0.04763 0.5
25 2 0.599999 0.000126442 0.5
26 2 0.624999 0.0476298 0.5
27 2 0.649998 0.000125719 0.5
28 2 0.674998 0.0476292 0.5
29 2 0.699997 0.000124218 0.5
30 2 0.724997 0.0476282 0.5
31 2 0.749996 0.00012188 0.5
32 2 0.774996 0.0476269 0.5
33 2 0.799996 0.000118712 0.5
34 2 0.824995 0.0476252 0.5
35 2 0.849996 0.000114864 0.5
36 2 0.874995 0.047623 0.5
37 2 0.899996 0.000110672 0.5
38 2 0.924995 0.0476205 0.5
39 2 0.949997 0.000106666 0.5
40 2 0.974996 0.0476181 0.5
61 2 0.500002 0.0949378 0.5
62 1 0.525001 0.14225 0.5
63 2 0.550001 0.0949379 0.5
64 1 0.575 0.142249 0.5
65 2 0.599999 0.0949379 0.5
66 1 0.624999 0.14225 0.5
67 2 0.649998 0.0949378 0.5
68 1 0.674997 0.14225 0.5
69 2 0.699997 0.0949375 0.5
70 1 0.724996 0.14225 0.5
71 2 0.749996 0.0949372 0.5
72 1 0.774994 0.14225 0.5
73 2 0.799995 0.0949367 0.5
74 1 0.824993 0.14225 0.5
75 2 0.849994 0.0949361 0.5
76 1 0.874993 0.14225 0.5
77 2 0.899993 0.0949355 0.5
78 1 0.924993 0.142251 0.5
79 2 0.949994 0.0949352 0.5
80 1 0.974995 0.142253 0.5
101 1 0.500002 0.18957 0.5
102 1 0.525002 0.236883 0.5
103 1 0.550001 0.18957 0.5
104 1 0.575 0.236882 0.5
105 1 0.599999 0.18957 0.5
106 1 0.624998 0.236883 0.5
107 1 0.649998 0.18957 0.5
108 1 0.674995 0.236883 0.5
109 1 0.699996 0.18957 0.5
110 1 0.724993 0.236884 0.5
111 1 0.749994 0.18957 0.5
112 1 0.774992 0.236883 0.5
113 1 0.799993 0.18957 0.5
114 1 0.824991 0.236884 0.5
115 1 0.849992 0.189571 0.5
116 1 0.874992 0.236886 0.5
117 1 0.899993 0.189572 0.5
118 1 0.924994 0.23689 0.5
119 1 0.949995 0.189575 0.5
120 1 0.974997 0.236893 0.5
420 1 0.950014 0.946833 0.5
142 1 0.525006 0.331509 0.5
143 1 0.550003 0.284192 0.5
144 1 0.575 0.331512 0.5
145 1 0.599997 0.284192 0.5
146 1 0.624994 0.331509 0.5
147 1 0.649994 0.284192 0.5
148 1 0.674989 0.331506 0.5
149 1 0.699992 0.284192 0.5
150 1 0.724987 0.331505 0.5
151 1 0.74999 0.284192 0.5
152 1 0.774988 0.331505 0.5
153 1 0.79999 0.284193 0.5
154 1 0.824989 0.331508 0.5
155 1 0.849991 0.284195 0.5
156 1 0.874993 0.331511 0.5
157 1 0.899994 0.284199 0.5
158 1 0.924995 0.331514 0.5
159 1 0.949996 0.284202 0.5
160 1 0.974998 0.331517 0.5
419 1 0.899999 0.946819 0.5
182 1 0.525001 0.426146 0.5
183 1 0.550001 0.378827 0.5
184 1 0.575 0.426146 0.5
185 1 0.599999 0.378827 0.5
186 1 0.624999 0.426146 0.5
187 1 0.649993 0.378827 0.5
188 1 0.674998 0.426146 0.5
189 1 0.699987 0.378822 0.5
190 1 0.724991 0.426143 0.5
191 1 0.749985 0.37882 0.5
192 1 0.774987 0.426139 0.5
193 1 0.799986 0.378821 0.5
194 1 0.824988 0.42614 0.5
195 1 0.849991 0.378823 0.5
196 1 0.874992 0.426143 0.5
197 1 0.899994 0.378826 0.5
198 1 0.924995 0.426145 0.5
199 1 0.949997 0.378828 0.5
200 1 0.974998 0.426147 0.5
418 1 0.849986 0.94679 0.5
222 1 0.524995 0.520764 0.5
223 1 0.549999 0.473457 0.5
224 1 0.575 0.520762 0.5
225 1 0.600001 0.473457 0.5
226 1 0.625005 0.520764 0.5
227 1 0.650003 0.473458 0.5
228 1 0.675007 0.520768 0.5
229 1 0.700004 0.473461 0.5
230 1 0.725011 0.520772 0.5
231 1 0.750001 0.47346 0.5
232 1 0.775011 0.520777 0.5
233 1 0.799996 0.473457 0.5
234 1 0.825005 0.520774 0.5
235 1 0.849992 0.473456 0.5
236 1 0.874998 0.520771 0.5
237 1 0.899993 0.473457 0.5
238 1 0.924995 0.520771 0.5
239 1 0.949996 0.473459 0.5
240 1 0.974996 0.520773 0.5
281 1 0.999997 0.662714 0.5
262 1 0.524994 0.615392 0.5
263 1 0.549998 0.568079 0.5
264 1 0.575 0.615391 0.5
265 1 0.600002 0.568079 0.5
266 1 0.625006 0.615392 0.5
267 1 0.650007 0.568081 0.5
268 1 0.675009 0.615394 0.5
269 1 0.700012 0.568086 0.5
270 1 0.725015 0.6154 0.5
271 1 0.750017 0.568093 0.5
272 1 0.775021 0.61541 0.5
273 1 0.800019 0.568099 0.5
274 1 0.825024 0.615415 0.5
275 1 0.850012 0.568098 0.5
276 1 0.875016 0.615415 0.5
277 1 0.900003 0.568093 0.5
278 1 0.925005 0.615408 0.5
279 1 0.949997 0.56809 0.5
280 1 0.974997 0.615402 0.5
411 3 0.500093 0.946876 0.5
302 1 0.525 0.710015 0.5
303 1 0.549997 0.662701 0.5
304 1 0.575 0.71001 0.5
305 1 0.600003 0.662701 0.5
306 1 0.625 0.710015 0.5
307 1 0.650008 0.662706 0.5
308 1 0.675005 0.710021 0.5
309 1 0.700011 0.662713 0.5
310 1 0.72501 0.710026 0.5
311 1 0.750017 0.662718 0.5
312 1 0.775016 0.710032 0.5
313 1 0.800023 0.662728 0.5
314 1 0.825022 0.710041 0.5
315 1 0.850026 0.662733 0.5
316 1 0.875024 0.710046 0.5
317 1 0.900018 0.662732 0.5
318 1 0.925017 0.710044 0.5
319 1 0.950005 0.662724 0.5
320 1 0.975005 0.710031 0.5
417 1 0.799976 0.946783 0.5
342 1 0.525012 0.804656 0.5
343 1 0.550004 0.757326 0.5
344 1 0.575 0.80466 0.5
345 1 0.599996 0.757326 0.5
346 1 0.624988 0.804656 0.5
347 1 0.649991 0.757327 0.5
348 1 0.674983 0.804653 0.5
349 1 0.699997 0.757335 0.5
350 1 0.724984 0.804661 0.5
351 1 0.750005 0.757345 0.5
352 1 0.774997 0.804664 0.5
353 1 0.800014 0.75735 0.5
354 1 0.82501 0.804672 0.5
355 1 0.85002 0.757359 0.5
356 1 0.875018 0.804683 0.5
357 1 0.900022 0.757364 0.5
358 1 0.925019 0.804686 0.5
359 1 0.950014 0.757358 0.5
360 1 0.975011 0.804675 0.5
381 3 0.500017 0.851974 0.5
382 3 0.525009 0.899295 0.5
383 3 0.550006 0.851978 0.5
384 3 0.575 0.899311 0.5
385 3 0.599994 0.851978 0.5
386 3 0.624991 0.899295 0.5
387 3 0.649983 0.851974 0.5
388 3 0.674954 0.899316 0.5
389 3 0.699968 0.851976 0.5
390 3 0.724963 0.89928 0.5
391 3 0.749978 0.851969 0.5
392 3 0.774977 0.899276 0.5
393 1 0.799993 0.851975 0.5
394 1 0.82499 0.899283 0.5
395 1 0.850007 0.851987 0.5
396 1 0.875006 0.8993 0.5
397 1 0.900018 0.852 0.5
398 1 0.925014 0.89932 0.5
399 1 0.950015 0.852002 0.5
400 1 0.975012 0.899311 0.5
421 3 0.610177 0.999898 0.5
412 3 0.549989 0.946694 0.5
413 3 0.600011 0.946694 0.5
414 3 0.649907 0.946876 0.5
415 3 0.699951 0.946797 0.5
416 3 0.749965 0.946776 0.5
201 1 0.999998 0.47346 0.5
1 2 0.999998 0.000103481 0.5
341 1 0.500009 0.757327 0.5
41 2 0.999996 0.0949351 0.5
181 1 0.500007 0.378827 0.5
141 1 0.500006 0.284192 0.5
81 1 0.999997 0.189578 0.5
121 1 0.999998 0.284204 0.5
161 1 0.999999 0.37883 0.5
241 1 0.999995 0.56809 0.5
ITEM: TIMESTEP
78
ITEM: NUMBER OF ATOMS
421
ITEM: BOX BOUNDS pp ss pp
0.0000000000000000e+00 2.2653923264628304e+01
2.1879574711865565e-01 2.0476596262012407e+01
-2.8317404080785380e-01 2.8317404080785380e-01
ITEM: ATOMS id type xs ys zs
221 1 0.499966 0.47339 0.5
2 2 0.0249978 0.0476163 0.5
3 2 0.0499993 0.00010171 0.5
4 2 0.075 0.0476156 0.5
5 2 0.100001 0.00010171 0.5
6 2 0.125002 0.0476163 0.5
7 2 0.150002 0.000103481 0.5
8 2 0.175004 0.0476181 0.5
9 2 0.200003 0.000106666 0.5
10 2 0.225005 0.0476205 0.5
11 2 0.250004 0.000110672 0.5
12 2 0.275005 0.047623 0.5
13 2 0.300004 0.000114864 0.5
14 2 0.325005 0.0476252 0.5
15 2 0.350004 0.000118712 0.5
16 2 0.375004 0.0476269 0.5
17 2 0.400004 0.00012188 0.5
18 2 0.425003 0.0476282 0.5
19 2 0.450003 0.000124218 0.5
20 2 0.475002 0.0476292 0.5
406 1 0.249912 0.946707 0.5
42 1 0.0249915 0.142249 0.5
43 2 0.0499985 0.0949351 0.5
44 1 0.0749923 0.142248 0.5
45 2 0.100002 0.0949351 0.5
46 1 0.124993 0.142248 0.5
47 2 0.150004 0.0949351 0.5
48 1 0.174995 0.142247 0.5
49 2 0.200006 0.0949352 0.5
50 1 0.224996 0.142247 0.5
51 2 0.250007 0.0949355 0.5
52 1 0.274997 0.142247 0.5
53 2 0.300006 0.0949361 0.5
54 1 0.324997 0.142247 0.5
55 2 0.350005 0.0949367 0.5
56 1 0.374998 0.142248 0.5
57 2 0.400004 0.0949372 0.5
58 1 0.424999 0.142248 0.5
59 2 0.450003 0.0949375 0.5
60 1 0.474999 0.142248 0.5
405 1 0.19991 0.946723 0.5
82 1 0.0249792 0.23688 0.5
83 1 0.0499851 0.189563 0.5
84 1 0.0749771 0.236877 0.5
85 1 0.0999846 0.189562 0.5
86 1 0.124976 0.236875 0.5
87 1 0.149985 0.18956 0.5
88 1 0.174976 0.236872 0.5
89 1 0.199986 0.189559 0.5
90 1 0.224977 0.23687 0.5
91 1 0.249987 0.189558 0.5
92 1 0.274979 0.236868 0.5
93 1 0.299989 0.189557 0.5
94 1 0.324982 0.236866 0.5
95 1 0.349991 0.189557 0.5
96 1 0.374985 0.236865 0.5
97 1 0.399993 0.189557 0.5
98 1 0.424989 0.236865 0.5
99 1 0.449995 0.189557 0.5
100 1 0.474993 0.236866 0.5
404 1 0.149903 0.94674 0.5
122 1 0.0249639 0.331514 0.5
123 1 0.0499704 0.284195 0.5
124 1 0.0749603 0.331509 0.5
125 1 0.099968 0.284191 0.5
126 1 0.124958 0.331503 0.5
127 1 0.149967 0.284187 0.5
128 1 0.174958 0.331497 0.5
129 1 0.199967 0.284182 0.5
130 1 0.224959 0.331491 0.5
131 1 0.249969 0.284179 0.5
132 1 0.274961 0.331485 0.5
133 1 0.299972 0.284175 0.5
134 1 0.324965 0.331481 0.5
135 1 0.349976 0.284173 0.5
136 1 0.374971 0.331478 0.5
137 1 0.399981 0.284172 0.5
138 1 0.424977 0.331478 0.5
139 1 0.449986 0.284173 0.5
140 1 0.474983 0.331479 0.5
403 1 0.0998921 0.946758 0.5
162 1 0.0249443 0.426152 0.5
163 1 0.0499525 0.37883 0.5
164 1 0.0749405 0.426143 0.5
165 1 0.0999494 0.378822 0.5
166 1 0.124938 0.426133 0.5
167 1 0.149948 0.378814 0.5
168 1 0.174938 0.426122 0.5
169 1 0.199948 0.378805 0.5
170 1 0.224939 0.426111 0.5
171 1 0.24995 0.378797 0.5
172 1 0.274942 0.426101 0.5
173 1 0.299954 0.37879 0.5
174 1 0.324946 0.426092 0.5
175 1 0.349959 0.378785 0.5
176 1 0.374953 0.426087 0.5
177 1 0.399966 0.378782 0.5
178 1 0.424961 0.426084 0.5
179 1 0.449973 0.378782 0.5
180 1 0.47497 0.426086 0.5
410 3 0.449887 0.946636 0.5
202 1 0.0249201 0.52079 0.5
203 1 0.0499309 0.473466 0.5
204 1 0.074918 0.520777 0.5
205 1 0.0999285 0.473454 0.5
206 1 0.124917 0.520762 0.5
207 1 0.149928 0.473441 0.5
208 1 0.174918 0.520746 0.5
209 1 0.199928 0.473427 0.5
210 1 0.224919 0.52073 0.5
211 1 0.24993 0.473414 0.5
212 1 0.27492 0.520714 0.5
213 1 0.299933 0.473402 0.5
214 1 0.324924 0.5207 0.5
215 1 0.349938 0.473392 0.5
216 1 0.374929 0.520689 0.5
217 1 0.399946 0.473386 0.5
218 1 0.424938 0.520684 0.5
219 1 0.449955 0.473385 0.5
220 1 0.474949 0.520685 0.5
402 1 0.0498756 0.946778 0.5
242 1 0.0248931 0.615427 0.5
243 1 0.0499064 0.568102 0.5
244 1 0.0748954 0.615409 0.5
245 1 0.0999067 0.568085 0.5
246 1 0.124898 0.615389 0.5
247 1 0.149908 0.568067 0.5
248 1 0.1749 0.615369 0.5
249 1 0.199909 0.568048 0.5
250 1 0.224901 0.615349 0.5
251 1 0.249909 0.56803 0.5
252 1 0.274901 0.615329 0.5
253 1 0.299911 0.568012 0.5
254 1 0.3249 0.615308 0.5
255 1 0.349913 0.567996 0.5
256 1 0.374901 0.615289 0.5
257 1 0.399919 0.567984 0.5
258 1 0.424905 0.615274 0.5
259 1 0.449928 0.567979 0.5
260 1 0.474917 0.615271 0.5
409 1 0.399897 0.946652 0.5
282 1 0.0248685 0.710057 0.5
283 1 0.0498828 0.662733 0.5
284 1 0.0748772 0.710034 0.5
285 1 0.0998878 0.662712 0.5
286 1 0.124884 0.710012 0.5
287 1 0.149892 0.66269 0.5
288 1 0.174888 0.70999 0.5
289 1 0.199894 0.662669 0.5
290 1 0.22489 0.709968 0.5
291 1 0.249894 0.662648 0.5
292 1 0.274888 0.709946 0.5
293 1 0.299892 0.662626 0.5
294 1 0.324884 0.709922 0.5
295 1 0.349889 0.662603 0.5
296 1 0.374876 0.709897 0.5
297 1 0.399886 0.66258 0.5
298 1 0.424867 0.709867 0.5
299 1 0.449888 0.66256 0.5
300 1 0.474864 0.709839 0.5
321 1 -0.000147791 0.757381 0.5
322 1 0.0248536 0.804676 0.5
323 1 0.0498658 0.757356 0.5
324 1 0.074869 0.804651 0.5
325 1 0.0998765 0.757332 0.5
326 1 0.12488 0.804629 0.5
327 1 0.149884 0.75731 0.5
328 1 0.174887 0.804607 0.5
329 1 0.199888 0.757288 0.5
330 1 0.22489 0.804587 0.5
331 1 0.249888 0.757267 0.5
332 1 0.274888 0.804566 0.5
333 1 0.299884 0.757244 0.5
334 1 0.324882 0.804543 0.5
335 1 0.349876 0.75722 0.5
336 1 0.37487 0.804518 0.5
337 1 0.399862 0.75719 0.5
338 1 0.42485 0.804486 0.5
339 1 0.449843 0.75715 0.5
340 1 0.474816 0.80443 0.5
408 1 0.349905 0.946671 0.5
362 1 0.0248561 0.899285 0.5
363 1 0.0498619 0.851968 0.5
364 1 0.0748755 0.899263 0.5
365 1 0.0998772 0.851946 0.5
366 1 0.124889 0.899243 0.5
367 1 0.149887 0.851925 0.5
368 1 0.174898 0.899224 0.5
369 1 0.199893 0.851905 0.5
370 1 0.224902 0.899206 0.5
371 1 0.249894 0.851885 0.5
372 1 0.274901 0.899187 0.5
373 1 0.299891 0.851865 0.5
374 1 0.324896 0.899168 0.5
375 1 0.349883 0.851844 0.5
376 1 0.374887 0.899148 0.5
377 1 0.399869 0.851819 0.5
378 1 0.424871 0.899126 0.5
379 3 0.449848 0.851786 0.5
380 3 0.474839 0.899089 0.5
407 1 0.29991 0.946689 0.5
261 1 0.499942 0.567984 0.5
401 1 -0.000147379 0.946799 0.5
361 1 -0.000158727 0.851993 0.5
301 1 0.499902 0.66256 0.5
21 2 0.500002 0.000125719 0.5
22 2 0.525001 0.0476298 0.5
23 2 0.550001 0.000126442 0.5
24 2 0.575 0.04763 0.5
25 2 0.599999 0.000126442 0.5
26 2 0.624999 0.0476298 0.5
27 2 0.649998 0.000125719 0.5
28 2 0.674998 0.0476292 0.5
29 2 0.699997 0.000124218 0.5
30 2 0.724997 0.0476282 0.5
31 2 0.749996 0.00012188 0.5
32 2 0.774996 0.0476269 0.5
33 2 0.799996 0.000118712 0.5
34 2 0.824995 0.0476252 0.5
35 2 0.849996 0.000114864 0.5
36 2 0.874995 0.047623 0.5
37 2 0.899996 0.000110672 0.5
38 2 0.924995 0.0476205 0.5
39 2 0.949997 0.000106666 0.5
40 2 0.974996 0.0476181 0.5
61 2 0.500002 0.0949378 0.5
62 1 0.525 0.142249 0.5
63 2 0.550001 0.0949379 0.5
64 1 0.575 0.142249 0.5
65 2 0.599999 0.0949379 0.5
66 1 0.625 0.14225 0.5
67 2 0.649998 0.0949378 0.5
68 1 0.674999 0.14225 0.5
69 2 0.699997 0.0949375 0.5
70 1 0.724998 0.142251 0.5
71 2 0.749996 0.0949372 0.5
72 1 0.774997 0.142251 0.5
73 2 0.799995 0.0949367 0.5
74 1 0.824995 0.142251 0.5
75 2 0.849994 0.0949361 0.5
76 1 0.874993 0.14225 0.5
77 2 0.899993 0.0949355 0.5
78 1 0.924992 0.14225 0.5
79 2 0.949994 0.0949352 0.5
80 1 0.974991 0.142249 0.5
101 1 0.499997 0.189558 0.5
102 1 0.524996 0.236868 0.5
103 1 0.549999 0.189559 0.5
104 1 0.574998 0.23687 0.5
105 1 0.6 0.18956 0.5
106 1 0.624999 0.236872 0.5
107 1 0.65 0.189562 0.5
108 1 0.675 0.236875 0.5
109 1 0.699999 0.189563 0.5
110 1 0.724999 0.236877 0.5
111 1 0.749998 0.189564 0.5
112 1 0.774996 0.23688 0.5
113 1 0.799996 0.189565 0.5
114 1 0.824993 0.236881 0.5
115 1 0.849993 0.189566 0.5
116 1 0.87499 0.236882 0.5
117 1 0.899991 0.189566 0.5
118 1 0.924986 0.236882 0.5
119 1 0.949988 0.189565 0.5
120 1 0.974982 0.236881 0.5
420 1 0.949821 0.946824 0.5
142 1 0.524989 0.331482 0.5
143 1 0.549995 0.284177 0.5
144 1 0.574993 0.331487 0.5
145 1 0.599997 0.28418 0.5
146 1 0.624996 0.331492 0.5
147 1 0.649999 0.284185 0.5
148 1 0.674997 0.331499 0.5
149 1 0.699998 0.284189 0.5
150 1 0.724995 0.331505 0.5
151 1 0.749996 0.284193 0.5
152 1 0.774992 0.331511 0.5
153 1 0.799993 0.284196 0.5
154 1 0.824987 0.331515 0.5
155 1 0.849989 0.284199 0.5
156 1 0.874981 0.331518 0.5
157 1 0.899984 0.2842 0.5
158 1 0.924975 0.331519 0.5
159 1 0.949979 0.2842 0.5
160 1 0.974969 0.331518 0.5
419 1 0.899779 0.946852 0.5
182 1 0.524978 0.426092 0.5
183 1 0.549987 0.378791 0.5
184 1 0.574985 0.4261 0.5
185 1 0.599992 0.378798 0.5
186 1 0.624989 0.426111 0.5
187 1 0.649994 0.378806 0.5
188 1 0.67499 0.426122 0.5
189 1 0.699993 0.378815 0.5
190 1 0.724987 0.426134 0.5
191 1 0.74999 0.378823 0.5
192 1 0.774982 0.426145 0.5
193 1 0.799985 0.378831 0.5
194 1 0.824974 0.426154 0.5
195 1 0.849978 0.378836 0.5
196 1 0.874966 0.426159 0.5
197 1 0.899971 0.378839 0.5
198 1 0.924957 0.42616 0.5
199 1 0.949963 0.378838 0.5
200 1 0.97495 0.426158 0.5
418 1 0.84972 0.946886 0.5
222 1 0.524961 0.520693 0.5
223 1 0.549975 0.473399 0.5
224 1 0.574971 0.520707 0.5
225 1 0.599982 0.473411 0.5
226 1 0.624977 0.520726 0.5
227 1 0.649985 0.473426 0.5
228 1 0.674977 0.520747 0.5
229 1 0.699983 0.473443 0.5
230 1 0.724972 0.520768 0.5
231 1 0.749978 0.473458 0.5
232 1 0.774963 0.520787 0.5
233 1 0.799969 0.473471 0.5
234 1 0.824951 0.520801 0.5
235 1 0.849959 0.47348 0.5
236 1 0.87494 0.520807 0.5
237 1 0.899949 0.473483 0.5
238 1 0.924931 0.520807 0.5
239 1 0.949941 0.473482 0.5
240 1 0.974924 0.520801 0.5
281 1 0.999877 0.662754 0.5
262 1 0.524933 0.615281 0.5
263 1 0.549955 0.567998 0.5
264 1 0.574948 0.615304 0.5
265 1 0.599965 0.568019 0.5
266 1 0.624957 0.615336 0.5
267 1 0.649969 0.568045 0.5
268 1 0.674956 0.615373 0.5
269 1 0.699965 0.568074 0.5
270 1 0.724946 0.61541 0.5
271 1 0.749955 0.5681 0.5
272 1 0.774928 0.615441 0.5
273 1 0.799941 0.568121 0.5
274 1 0.824911 0.61546 0.5
275 1 0.849928 0.568133 0.5
276 1 0.8749 0.615464 0.5
277 1 0.899917 0.568134 0.5
278 1 0.924894 0.615457 0.5
279 1 0.949911 0.568128 0.5
280 1 0.974892 0.615444 0.5
411 3 0.499841 0.946597 0.5
302 1 0.524884 0.709843 0.5
303 1 0.549923 0.662579 0.5
304 1 0.574911 0.70988 0.5
305 1 0.599939 0.662616 0.5
306 1 0.624927 0.709939 0.5
307 1 0.649944 0.662664 0.5
308 1 0.674921 0.71001 0.5
309 1 0.699934 0.662715 0.5
310 1 0.724893 0.710078 0.5
311 1 0.749913 0.66276 0.5
312 1 0.774861 0.710123 0.5
313 1 0.79989 0.662789 0.5
314 1 0.824846 0.710131 0.5
315 1 0.849877 0.662795 0.5
316 1 0.874844 0.710121 0.5
317 1 0.899872 0.662788 0.5
318 1 0.92485 0.710102 0.5
319 1 0.949873 0.662773 0.5
320 1 0.974859 0.71008 0.5
417 1 0.799635 0.946926 0.5
342 1 0.524778 0.804338 0.5
343 1 0.549864 0.757121 0.5
344 1 0.574843 0.804394 0.5
345 1 0.599899 0.757189 0.5
346 1 0.624883 0.804524 0.5
347 1 0.649905 0.757286 0.5
348 1 0.674848 0.804689 0.5
349 1 0.699871 0.75739 0.5
350 1 0.724756 0.804829 0.5
351 1 0.749819 0.757466 0.5
352 1 0.774745 0.804821 0.5
353 1 0.799804 0.757472 0.5
354 1 0.824761 0.804793 0.5
355 1 0.849808 0.757456 0.5
356 1 0.874786 0.804763 0.5
357 1 0.899821 0.757433 0.5
358 1 0.924811 0.804732 0.5
359 1 0.949837 0.757407 0.5
360 1 0.974834 0.804702 0.5
381 3 0.49979 0.851709 0.5
382 3 0.524741 0.898999 0.5
383 3 0.549689 0.851513 0.5
384 3 0.57448 0.898549 0.5
385 3 0.599828 0.851679 0.5
386 3 0.624784 0.899072 0.5
387 3 0.649833 0.851946 0.5
388 3 0.674383 0.899807 0.5
389 3 0.69965 0.852241 0.5
390 3 0.724505 0.899572 0.5
391 3 0.749663 0.852182 0.5
392 3 0.774624 0.899461 0.5
393 1 0.799702 0.85213 0.5
394 1 0.824694 0.899415 0.5
395 1 0.849743 0.85209 0.5
396 1 0.874751 0.899374 0.5
397 1 0.899782 0.852054 0.5
398 1 0.924796 0.89934 0.5
399 1 0.949815 0.852022 0.5
400 1 0.97483 0.89931 0.5
421 3 0.611571 0.997618 0.5
412 3 0.549727 0.946547 0.5
413 3 0.599099 0.945343 0.5
414 3 0.648618 0.948007 0.5
415 3 0.699221 0.947171 0.5
416 3 0.749505 0.946976 0.5
201 1 0.999935 0.473475 0.5
1 2 0.999998 0.000103481 0.5
341 1 0.49983 0.757103 0.5
41 2 0.999996 0.0949351 0.5
181 1 0.499981 0.378785 0.5
141 1 0.499991 0.284174 0.5
81 1 0.999986 0.189564 0.5
121 1 0.999974 0.284198 0.5
161 1 0.999957 0.378835 0.5
241 1 0.999907 0.568116 0.5
ITEM: TIMESTEP
107
ITEM: NUMBER OF ATOMS
421
ITEM: BOX BOUNDS pp ss pp
0.0000000000000000e+00 2.2653923264628304e+01
2.1879574711865565e-01 2.0430395510004747e+01
-2.8317404080785380e-01 2.8317404080785380e-01
ITEM: ATOMS id type xs ys zs
221 1 0.499937 0.474463 0.5
2 2 0.0249978 0.0477251 0.5
3 2 0.0499993 0.000101942 0.5
4 2 0.075 0.0477245 0.5
5 2 0.100001 0.000101942 0.5
6 2 0.125002 0.0477251 0.5
7 2 0.150002 0.000103717 0.5
8 2 0.175004 0.0477269 0.5
9 2 0.200003 0.00010691 0.5
10 2 0.225005 0.0477294 0.5
11 2 0.250004 0.000110925 0.5
12 2 0.275005 0.0477319 0.5
13 2 0.300004 0.000115127 0.5
14 2 0.325005 0.047734 0.5
15 2 0.350004 0.000118984 0.5
16 2 0.375004 0.0477357 0.5
17 2 0.400004 0.000122158 0.5
18 2 0.425003 0.0477371 0.5
19 2 0.450003 0.000124502 0.5
20 2 0.475002 0.047738 0.5
406 1 0.249872 0.948855 0.5
42 1 0.024987 0.142573 0.5
43 2 0.0499985 0.0951521 0.5
44 1 0.0749877 0.142572 0.5
45 2 0.100002 0.0951521 0.5
46 1 0.124989 0.142572 0.5
47 2 0.150004 0.0951521 0.5
48 1 0.17499 0.142571 0.5
49 2 0.200006 0.0951522 0.5
50 1 0.224991 0.142571 0.5
51 2 0.250007 0.0951525 0.5
52 1 0.274992 0.142571 0.5
53 2 0.300006 0.0951531 0.5
54 1 0.324993 0.142571 0.5
55 2 0.350005 0.0951537 0.5
56 1 0.374994 0.142572 0.5
57 2 0.400004 0.0951542 0.5
58 1 0.424995 0.142572 0.5
59 2 0.450003 0.0951546 0.5
60 1 0.474995 0.142572 0.5
405 1 0.199869 0.948874 0.5
82 1 0.0249659 0.237419 0.5
83 1 0.0499761 0.189995 0.5
84 1 0.0749637 0.237416 0.5
85 1 0.0999755 0.189993 0.5
86 1 0.124962 0.237414 0.5
87 1 0.149976 0.189992 0.5
88 1 0.174962 0.237411 0.5
89 1 0.199976 0.18999 0.5
90 1 0.224964 0.237408 0.5
91 1 0.249978 0.189989 0.5
92 1 0.274966 0.237406 0.5
93 1 0.29998 0.189989 0.5
94 1 0.324969 0.237404 0.5
95 1 0.349982 0.189988 0.5
96 1 0.374972 0.237404 0.5
97 1 0.399984 0.189988 0.5
98 1 0.424976 0.237404 0.5
99 1 0.449987 0.189989 0.5
100 1 0.47498 0.237404 0.5
404 1 0.149862 0.948893 0.5
122 1 0.0249424 0.332268 0.5
123 1 0.0499528 0.284841 0.5
124 1 0.0749385 0.332263 0.5
125 1 0.0999502 0.284837 0.5
126 1 0.124936 0.332257 0.5
127 1 0.149949 0.284833 0.5
128 1 0.174936 0.33225 0.5
129 1 0.199949 0.284828 0.5
130 1 0.224937 0.332244 0.5
131 1 0.249951 0.284824 0.5
132 1 0.27494 0.332238 0.5
133 1 0.299955 0.284821 0.5
134 1 0.324944 0.332234 0.5
135 1 0.349959 0.284818 0.5
136 1 0.37495 0.332231 0.5
137 1 0.399964 0.284817 0.5
138 1 0.424957 0.33223 0.5
139 1 0.44997 0.284818 0.5
140 1 0.474963 0.332232 0.5
403 1 0.09985 0.948913 0.5
162 1 0.0249154 0.427121 0.5
163 1 0.0499271 0.379691 0.5
164 1 0.0749113 0.427112 0.5
165 1 0.0999237 0.379683 0.5
166 1 0.124909 0.427101 0.5
167 1 0.149922 0.379675 0.5
168 1 0.174909 0.42709 0.5
169 1 0.199923 0.379666 0.5
170 1 0.22491 0.427078 0.5
171 1 0.249925 0.379657 0.5
172 1 0.274913 0.427067 0.5
173 1 0.299929 0.37965 0.5
174 1 0.324918 0.427059 0.5
175 1 0.349935 0.379644 0.5
176 1 0.374925 0.427053 0.5
177 1 0.399942 0.379642 0.5
178 1 0.424934 0.427051 0.5
179 1 0.44995 0.379642 0.5
180 1 0.474943 0.427053 0.5
410 3 0.449854 0.948776 0.5
202 1 0.024885 0.521975 0.5
203 1 0.0498986 0.474543 0.5
204 1 0.0748827 0.521961 0.5
205 1 0.099896 0.47453 0.5
206 1 0.124882 0.521945 0.5
207 1 0.149895 0.474516 0.5
208 1 0.174882 0.521929 0.5
209 1 0.199896 0.474502 0.5
210 1 0.224883 0.521912 0.5
211 1 0.249898 0.474488 0.5
212 1 0.274886 0.521895 0.5
213 1 0.299901 0.474475 0.5
214 1 0.32489 0.521881 0.5
215 1 0.349907 0.474465 0.5
216 1 0.374896 0.521869 0.5
217 1 0.399916 0.474459 0.5
218 1 0.424905 0.521864 0.5
219 1 0.449926 0.474459 0.5
220 1 0.474917 0.521866 0.5
402 1 0.0498333 0.948934 0.5
242 1 0.0248534 0.616828 0.5
243 1 0.0498687 0.569394 0.5
244 1 0.0748554 0.616808 0.5
245 1 0.0998688 0.569376 0.5
246 1 0.124858 0.616787 0.5
247 1 0.14987 0.569357 0.5
248 1 0.17486 0.616766 0.5
249 1 0.199871 0.569338 0.5
250 1 0.224861 0.616745 0.5
251 1 0.249872 0.569319 0.5
252 1 0.274862 0.616724 0.5
253 1 0.299874 0.5693 0.5
254 1 0.324862 0.616703 0.5
255 1 0.349877 0.569283 0.5
256 1 0.374864 0.616683 0.5
257 1 0.399883 0.569271 0.5
258 1 0.424869 0.616668 0.5
259 1 0.449894 0.569266 0.5
260 1 0.474881 0.616666 0.5
409 1 0.399862 0.948794 0.5
282 1 0.0248257 0.711673 0.5
283 1 0.0498412 0.664241 0.5
284 1 0.0748343 0.711649 0.5
285 1 0.0998461 0.664218 0.5
286 1 0.124841 0.711626 0.5
287 1 0.14985 0.664196 0.5
288 1 0.174846 0.711602 0.5
289 1 0.199852 0.664173 0.5
290 1 0.224848 0.711579 0.5
291 1 0.249853 0.664151 0.5
292 1 0.274847 0.711556 0.5
293 1 0.299852 0.664128 0.5
294 1 0.324843 0.711531 0.5
295 1 0.34985 0.664104 0.5
296 1 0.374836 0.711505 0.5
297 1 0.399848 0.664081 0.5
298 1 0.424829 0.711474 0.5
299 1 0.449851 0.664061 0.5
300 1 0.474827 0.711447 0.5
301 1 0.499867 0.664061 0.5
322 1 0.0248097 0.806508 0.5
323 1 0.0498221 0.759079 0.5
324 1 0.074825 0.806482 0.5
325 1 0.0998328 0.759055 0.5
326 1 0.124836 0.806458 0.5
327 1 0.14984 0.759031 0.5
328 1 0.174844 0.806435 0.5
329 1 0.199845 0.759008 0.5
330 1 0.224847 0.806413 0.5
331 1 0.249845 0.758985 0.5
332 1 0.274846 0.80639 0.5
333 1 0.299843 0.758961 0.5
334 1 0.324841 0.806367 0.5
335 1 0.349835 0.758935 0.5
336 1 0.374831 0.80634 0.5
337 1 0.399823 0.758905 0.5
338 1 0.424813 0.806308 0.5
339 1 0.449806 0.758864 0.5
340 1 0.474781 0.806249 0.5
408 1 0.349868 0.948816 0.5
362 1 0.0248129 0.901334 0.5
363 1 0.0498181 0.853908 0.5
364 1 0.0748322 0.90131 0.5
365 1 0.0998335 0.853884 0.5
366 1 0.124846 0.901288 0.5
367 1 0.149844 0.853861 0.5
368 1 0.174855 0.901267 0.5
369 1 0.19985 0.85384 0.5
370 1 0.22486 0.901247 0.5
371 1 0.249852 0.853818 0.5
372 1 0.274861 0.901227 0.5
373 1 0.29985 0.853797 0.5
374 1 0.324857 0.901206 0.5
375 1 0.349844 0.853773 0.5
376 1 0.37485 0.901183 0.5
377 1 0.399833 0.853747 0.5
378 1 0.424837 0.901159 0.5
379 3 0.449816 0.853713 0.5
380 3 0.474807 0.901121 0.5
407 1 0.299872 0.948836 0.5
261 1 0.499908 0.569271 0.5
101 1 0.499989 0.189989 0.5
411 3 0.499805 0.948736 0.5
381 3 0.499759 0.853633 0.5
341 1 0.499795 0.758817 0.5
181 1 0.499958 0.379645 0.5
141 1 0.499975 0.28482 0.5
21 2 0.500002 0.000126006 0.5
22 2 0.525001 0.0477387 0.5
23 2 0.550001 0.000126731 0.5
24 2 0.575 0.0477389 0.5