ITEM: TIMESTEP
0
ITEM: NUMBER OF ATOMS
421
ITEM: BOX BOUNDS pp ss pp
0.0000000000000000e+00 2.2653923264628304e+01
2.1879574711865565e-01 2.0400203808195606e+01
-2.8317404080785380e-01 2.8317404080785380e-01
ITEM: ATOMS id type xs ys zs
221 1 0.499997 0.47525 0.5
2 2 0.0249978 0.0477965 0.5
3 2 0.0499993 0.000102095 0.5
4 2 0.075 0.0477959 0.5
5 2 0.100001 0.000102095 0.5
6 2 0.125002 0.0477965 0.5
7 2 0.150002 0.000103872 0.5
8 2 0.175004 0.0477983 0.5
9 2 0.200003 0.00010707 0.5
10 2 0.225005 0.0478008 0.5
11 2 0.250004 0.000111091 0.5
12 2 0.275005 0.0478033 0.5
13 2 0.300004 0.000115299 0.5
14 2 0.325005 0.0478054 0.5
15 2 0.350004 0.000119162 0.5
16 2 0.375004 0.0478071 0.5
17 2 0.400004 0.000122341 0.5
18 2 0.425003 0.0478085 0.5
19 2 0.450003 0.000124689 0.5
20 2 0.475002 0.0478095 0.5
406 1 0.250001 0.950403 0.5
42 1 0.0249972 0.142793 0.5
43 2 0.0499985 0.0952945 0.5
44 1 0.075 0.142794 0.5
45 2 0.100002 0.0952945 0.5
46 1 0.125003 0.142793 0.5
47 2 0.150004 0.0952944 0.5
48 1 0.175005 0.142791 0.5
49 2 0.200006 0.0952945 0.5
50 1 0.225007 0.14279 0.5
51 2 0.250007 0.0952948 0.5
52 1 0.275007 0.142789 0.5
53 2 0.300006 0.0952954 0.5
54 1 0.325007 0.142789 0.5
55 2 0.350005 0.095296 0.5
56 1 0.375006 0.142789 0.5
57 2 0.400004 0.0952965 0.5
58 1 0.425004 0.142789 0.5
59 2 0.450003 0.0952969 0.5
60 1 0.475003 0.142788 0.5
405 1 0.199986 0.950417 0.5
82 1 0.0249986 0.237792 0.5
83 1 0.049999 0.190297 0.5
84 1 0.075 0.237793 0.5
85 1 0.100001 0.190297 0.5
86 1 0.125001 0.237792 0.5
87 1 0.150003 0.190296 0.5
88 1 0.175003 0.23779 0.5
89 1 0.200005 0.190293 0.5
90 1 0.225006 0.237787 0.5
91 1 0.250007 0.19029 0.5
92 1 0.275008 0.237783 0.5
93 1 0.300008 0.190288 0.5
94 1 0.325009 0.237781 0.5
95 1 0.350007 0.190287 0.5
96 1 0.375008 0.23778 0.5
97 1 0.400006 0.190288 0.5
98 1 0.425007 0.23778 0.5
99 1 0.450004 0.190288 0.5
100 1 0.475005 0.23778 0.5
404 1 0.14998 0.950391 0.5
122 1 0.024999 0.332773 0.5
123 1 0.0499995 0.285281 0.5
124 1 0.075 0.332774 0.5
125 1 0.100001 0.285281 0.5
126 1 0.125001 0.332773 0.5
127 1 0.150002 0.28528 0.5
128 1 0.175002 0.332771 0.5
129 1 0.200004 0.285277 0.5
130 1 0.225005 0.332769 0.5
131 1 0.250006 0.285274 0.5
132 1 0.275007 0.332766 0.5
133 1 0.300009 0.285271 0.5
134 1 0.325011 0.332763 0.5
135 1 0.35001 0.285269 0.5
136 1 0.375012 0.33276 0.5
137 1 0.40001 0.285268 0.5
138 1 0.425013 0.33276 0.5
139 1 0.450008 0.285267 0.5
140 1 0.475011 0.332761 0.5
403 1 0.0999905 0.950359 0.5
162 1 0.024999 0.427761 0.5
163 1 0.0499993 0.380265 0.5
164 1 0.075 0.427762 0.5
165 1 0.100001 0.380265 0.5
166 1 0.125001 0.427761 0.5
167 1 0.150001 0.380264 0.5
168 1 0.175002 0.42776 0.5
169 1 0.200003 0.380262 0.5
170 1 0.225005 0.427758 0.5
171 1 0.250006 0.38026 0.5
172 1 0.275008 0.427756 0.5
173 1 0.300009 0.380257 0.5
174 1 0.325012 0.427753 0.5
175 1 0.350014 0.380255 0.5
176 1 0.375013 0.427752 0.5
177 1 0.400015 0.380254 0.5
178 1 0.425009 0.427756 0.5
179 1 0.450013 0.380256 0.5
180 1 0.475002 0.427759 0.5
410 3 0.450049 0.950381 0.5
202 1 0.0249985 0.522744 0.5
203 1 0.0499994 0.475253 0.5
204 1 0.075 0.522745 0.5
205 1 0.100001 0.475253 0.5
206 1 0.125002 0.522744 0.5
207 1 0.150002 0.475252 0.5
208 1 0.175004 0.522744 0.5
209 1 0.200004 0.475252 0.5
210 1 0.225005 0.522742 0.5
211 1 0.250007 0.475249 0.5
212 1 0.275002 0.522742 0.5
213 1 0.300008 0.475248 0.5
214 1 0.324995 0.522746 0.5
215 1 0.350004 0.475249 0.5
216 1 0.374989 0.522748 0.5
217 1 0.399999 0.475252 0.5
218 1 0.424989 0.522744 0.5
219 1 0.449996 0.475253 0.5
220 1 0.474993 0.522739 0.5
402 1 0.0500095 0.950359 0.5
242 1 0.0249956 0.61773 0.5
243 1 0.0499984 0.57024 0.5
244 1 0.075 0.61773 0.5
245 1 0.100002 0.57024 0.5
246 1 0.125004 0.61773 0.5
247 1 0.150005 0.57024 0.5
248 1 0.175003 0.617732 0.5
249 1 0.200003 0.57024 0.5
250 1 0.224995 0.617738 0.5
251 1 0.249997 0.570243 0.5
252 1 0.274984 0.617744 0.5
253 1 0.299988 0.570249 0.5
254 1 0.324976 0.617745 0.5
255 1 0.349981 0.570249 0.5
256 1 0.374979 0.617739 0.5
257 1 0.399983 0.570244 0.5
258 1 0.424985 0.61773 0.5
259 1 0.449988 0.570236 0.5
260 1 0.474991 0.617724 0.5
409 1 0.400035 0.95036 0.5
282 1 0.024998 0.712706 0.5
283 1 0.0499969 0.665219 0.5
284 1 0.075 0.712702 0.5
285 1 0.100003 0.665219 0.5
286 1 0.125002 0.712706 0.5
287 1 0.150003 0.665223 0.5
288 1 0.174995 0.712719 0.5
289 1 0.199995 0.665232 0.5
290 1 0.224983 0.712731 0.5
291 1 0.249982 0.665241 0.5
292 1 0.274976 0.712734 0.5
293 1 0.299974 0.665242 0.5
294 1 0.324978 0.712729 0.5
295 1 0.349977 0.665237 0.5
296 1 0.374984 0.71272 0.5
297 1 0.399983 0.665227 0.5
298 1 0.42499 0.712714 0.5
299 1 0.449989 0.665221 0.5
300 1 0.474995 0.712708 0.5
321 1 3.64377e-06 0.760209 0.5
322 1 0.025002 0.8077 0.5
323 1 0.0499996 0.760193 0.5
324 1 0.075 0.807688 0.5
325 1 0.1 0.760193 0.5
326 1 0.124998 0.8077 0.5
327 1 0.149996 0.760209 0.5
328 1 0.174989 0.807721 0.5
329 1 0.199986 0.760225 0.5
330 1 0.224981 0.807732 0.5
331 1 0.249978 0.760231 0.5
332 1 0.274982 0.807729 0.5
333 1 0.29998 0.760226 0.5
334 1 0.32499 0.807718 0.5
335 1 0.349986 0.760217 0.5
336 1 0.375003 0.80771 0.5
337 1 0.399995 0.760211 0.5
338 1 0.425016 0.807707 0.5
339 1 0.450003 0.760202 0.5
340 1 0.475017 0.807699 0.5
408 1 0.350024 0.950367 0.5
362 1 0.0250069 0.902683 0.5
363 1 0.0500014 0.855182 0.5
364 1 0.075 0.902666 0.5
365 1 0.0999986 0.855182 0.5
366 1 0.124993 0.902683 0.5
367 1 0.149994 0.855207 0.5
368 1 0.174988 0.902716 0.5
369 1 0.199985 0.855227 0.5
370 1 0.224986 0.902724 0.5
371 1 0.249982 0.855225 0.5
372 1 0.274994 0.902704 0.5
373 1 0.299993 0.855212 0.5
374 1 0.32501 0.902687 0.5
375 1 0.350007 0.8552 0.5
376 1 0.375023 0.90268 0.5
377 1 0.400022 0.855194 0.5
378 1 0.425037 0.902684 0.5
379 3 0.450032 0.855201 0.5
380 3 0.475046 0.90272 0.5
407 1 0.300014 0.950374 0.5
261 1 0.499993 0.570231 0.5
401 1 2.0232e-05 0.950391 0.5
361 1 6.38311e-06 0.855207 0.5
301 1 0.499992 0.665215 0.5
21 2 0.500002 0.000126195 0.5
22 2 0.525001 0.0478101 0.5
23 2 0.550001 0.00012692 0.5
24 2 0.575 0.0478103 0.5
25 2 0.599999 0.00012692 0.5
26 2 0.624999 0.0478101 0.5
27 2 0.649998 0.000126195 0.5
28 2 0.674998 0.0478095 0.5
29 2 0.699997 0.000124689 0.5
30 2 0.724997 0.0478085 0.5
31 2 0.749996 0.000122341 0.5
32 2 0.774996 0.0478071 0.5
33 2 0.799996 0.000119162 0.5
34 2 0.824995 0.0478054 0.5
35 2 0.849996 0.000115299 0.5
36 2 0.874995 0.0478033 0.5
37 2 0.899996 0.000111091 0.5
38 2 0.924995 0.0478008 0.5
39 2 0.949997 0.00010707 0.5
40 2 0.974996 0.0477983 0.5
61 2 0.500002 0.0952972 0.5
62 1 0.525001 0.142788 0.5
63 2 0.550001 0.0952973 0.5
64 1 0.575 0.142788 0.5
65 2 0.599999 0.0952973 0.5
66 1 0.624999 0.142788 0.5
67 2 0.649998 0.0952972 0.5
68 1 0.674997 0.142788 0.5
69 2 0.699997 0.0952969 0.5
70 1 0.724996 0.142789 0.5
71 2 0.749996 0.0952965 0.5
72 1 0.774994 0.142789 0.5
73 2 0.799995 0.095296 0.5
74 1 0.824993 0.142789 0.5
75 2 0.849994 0.0952954 0.5
76 1 0.874993 0.142789 0.5
77 2 0.899993 0.0952948 0.5
78 1 0.924993 0.14279 0.5
79 2 0.949994 0.0952945 0.5
80 1 0.974995 0.142791 0.5
101 1 0.500002 0.190288 0.5
102 1 0.525002 0.237779 0.5
103 1 0.550001 0.190288 0.5
104 1 0.575 0.237779 0.5
105 1 0.599999 0.190288 0.5
106 1 0.624998 0.237779 0.5
107 1 0.649998 0.190288 0.5
108 1 0.674995 0.23778 0.5
109 1 0.699996 0.190288 0.5
110 1 0.724993 0.23778 0.5
111 1 0.749994 0.190288 0.5
112 1 0.774992 0.23778 0.5
113 1 0.799993 0.190287 0.5
114 1 0.824991 0.237781 0.5
115 1 0.849992 0.190288 0.5
116 1 0.874992 0.237783 0.5
117 1 0.899993 0.19029 0.5
118 1 0.924994 0.237787 0.5
119 1 0.949995 0.190293 0.5
120 1 0.974997 0.23779 0.5
420 1 0.950014 0.950417 0.5
142 1 0.525006 0.332764 0.5
143 1 0.550003 0.285268 0.5
144 1 0.575 0.332767 0.5
145 1 0.599997 0.285268 0.5
146 1 0.624994 0.332764 0.5
147 1 0.649994 0.285268 0.5
148 1 0.674989 0.332761 0.5
149 1 0.699992 0.285267 0.5
150 1 0.724987 0.33276 0.5
151 1 0.74999 0.285268 0.5
152 1 0.774988 0.33276 0.5
153 1 0.79999 0.285269 0.5
154 1 0.824989 0.332763 0.5
155 1 0.849991 0.285271 0.5
156 1 0.874993 0.332766 0.5
157 1 0.899994 0.285274 0.5
158 1 0.924995 0.332769 0.5
159 1 0.949996 0.285277 0.5
160 1 0.974998 0.332771 0.5
419 1 0.899999 0.950403 0.5
182 1 0.525001 0.427759 0.5
183 1 0.550001 0.380261 0.5
184 1 0.575 0.427759 0.5
185 1 0.599999 0.380261 0.5
186 1 0.624999 0.427759 0.5
187 1 0.649993 0.380261 0.5
188 1 0.674998 0.427759 0.5
189 1 0.699987 0.380256 0.5
190 1 0.724991 0.427756 0.5
191 1 0.749985 0.380254 0.5
192 1 0.774987 0.427752 0.5
193 1 0.799986 0.380255 0.5
194 1 0.824988 0.427753 0.5
195 1 0.849991 0.380257 0.5
196 1 0.874992 0.427756 0.5
197 1 0.899994 0.38026 0.5
198 1 0.924995 0.427758 0.5
199 1 0.949997 0.380262 0.5
200 1 0.974998 0.42776 0.5
418 1 0.849986 0.950374 0.5
222 1 0.524995 0.522735 0.5
223 1 0.549999 0.47525 0.5
224 1 0.575 0.522734 0.5
225 1 0.600001 0.47525 0.5
226 1 0.625005 0.522735 0.5
227 1 0.650003 0.47525 0.5
228 1 0.675007 0.522739 0.5
229 1 0.700004 0.475253 0.5
230 1 0.725011 0.522744 0.5
231 1 0.750001 0.475252 0.5
232 1 0.775011 0.522748 0.5
233 1 0.799996 0.475249 0.5
234 1 0.825005 0.522746 0.5
235 1 0.849992 0.475248 0.5
236 1 0.874998 0.522742 0.5
237 1 0.899993 0.475249 0.5
238 1 0.924995 0.522742 0.5
239 1 0.949996 0.475252 0.5
240 1 0.974996 0.522744 0.5
281 1 0.999997 0.665223 0.5
262 1 0.524994 0.617721 0.5
263 1 0.549998 0.570229 0.5
264 1 0.575 0.61772 0.5
265 1 0.600002 0.570229 0.5
266 1 0.625006 0.617721 0.5
267 1 0.650007 0.570231 0.5
268 1 0.675009 0.617724 0.5
269 1 0.700012 0.570236 0.5
270 1 0.725015 0.61773 0.5
271 1 0.750017 0.570244 0.5
272 1 0.775021 0.617739 0.5
273 1 0.800019 0.570249 0.5
274 1 0.825024 0.617745 0.5
275 1 0.850012 0.570249 0.5
276 1 0.875016 0.617744 0.5
277 1 0.900003 0.570243 0.5
278 1 0.925005 0.617738 0.5
279 1 0.949997 0.57024 0.5
280 1 0.974997 0.617732 0.5
411 3 0.500093 0.95046 0.5
302 1 0.525 0.712703 0.5
303 1 0.549997 0.665209 0.5
304 1 0.575 0.712698 0.5
305 1 0.600003 0.665209 0.5
306 1 0.625 0.712703 0.5
307 1 0.650008 0.665215 0.5
308 1 0.675005 0.712708 0.5
309 1 0.700011 0.665221 0.5
310 1 0.72501 0.712714 0.5
311 1 0.750017 0.665227 0.5
312 1 0.775016 0.71272 0.5
313 1 0.800023 0.665237 0.5
314 1 0.825022 0.712729 0.5
315 1 0.850026 0.665242 0.5
316 1 0.875024 0.712734 0.5
317 1 0.900018 0.665241 0.5
318 1 0.925017 0.712731 0.5
319 1 0.950005 0.665232 0.5
320 1 0.975005 0.712719 0.5
417 1 0.799976 0.950367 0.5
342 1 0.525012 0.807701 0.5
343 1 0.550004 0.760193 0.5
344 1 0.575 0.807706 0.5
345 1 0.599996 0.760193 0.5
346 1 0.624988 0.807701 0.5
347 1 0.649991 0.760194 0.5
348 1 0.674983 0.807699 0.5
349 1 0.699997 0.760202 0.5
350 1 0.724984 0.807707 0.5
351 1 0.750005 0.760211 0.5
352 1 0.774997 0.80771 0.5
353 1 0.800014 0.760217 0.5
354 1 0.82501 0.807718 0.5
355 1 0.85002 0.760226 0.5
356 1 0.875018 0.807729 0.5
357 1 0.900022 0.760231 0.5
358 1 0.925019 0.807732 0.5
359 1 0.950014 0.760225 0.5
360 1 0.975011 0.807721 0.5
381 3 0.500017 0.855199 0.5
382 3 0.525009 0.9027 0.5
383 3 0.550006 0.855203 0.5
384 3 0.575 0.902715 0.5
385 3 0.599994 0.855203 0.5
386 3 0.624991 0.9027 0.5
387 3 0.649983 0.855199 0.5
388 3 0.674954 0.90272 0.5
389 3 0.699968 0.855201 0.5
390 3 0.724963 0.902684 0.5
391 3 0.749978 0.855194 0.5
392 3 0.774977 0.90268 0.5
393 1 0.799993 0.8552 0.5
394 1 0.82499 0.902687 0.5
395 1 0.850007 0.855212 0.5
396 1 0.875006 0.902704 0.5
397 1 0.900018 0.855225 0.5
398 1 0.925014 0.902724 0.5
399 1 0.950015 0.855227 0.5
400 1 0.975012 0.902716 0.5
421 3 0.586726 0.999898 0.5
412 3 0.549989 0.950277 0.5
413 3 0.600011 0.950277 0.5
414 3 0.649907 0.95046 0.5
415 3 0.699951 0.950381 0.5
416 3 0.749965 0.95036 0.5
201 1 0.999998 0.475252 0.5
1 2 0.999998 0.000103872 0.5
341 1 0.500009 0.760194 0.5
41 2 0.999996 0.0952944 0.5
181 1 0.500007 0.380261 0.5
141 1 0.500006 0.285268 0.5
81 1 0.999997 0.190296 0.5
121 1 0.999998 0.28528 0.5
161 1 0.999999 0.380264 0.5
241 1 0.999995 0.57024 0.5
ITEM: TIMESTEP
78
ITEM: NUMBER OF ATOMS
421
ITEM: BOX BOUNDS pp ss pp
0.0000000000000000e+00 2.2653923264628304e+01
2.1879574711865565e-01 2.0400203808195606e+01
-2.8317404080785380e-01 2.8317404080785380e-01
ITEM: ATOMS id type xs ys zs
221 1 0.500026 0.475248 0.5
2 2 0.0249978 0.0477965 0.5
3 2 0.0499993 0.000102095 0.5
4 2 0.075 0.0477959 0.5
5 2 0.100001 0.000102095 0.5
6 2 0.125002 0.0477965 0.5
7 2 0.150002 0.000103872 0.5
8 2 0.175004 0.0477983 0.5
9 2 0.200003 0.00010707 0.5
10 2 0.225005 0.0478008 0.5
11 2 0.250004 0.000111091 0.5
12 2 0.275005 0.0478033 0.5
13 2 0.300004 0.000115299 0.5
14 2 0.325005 0.0478054 0.5
15 2 0.350004 0.000119162 0.5
16 2 0.375004 0.0478071 0.5
17 2 0.400004 0.000122341 0.5
18 2 0.425003 0.0478085 0.5
19 2 0.450003 0.000124689 0.5
20 2 0.475002 0.0478095 0.5
406 1 0.250213 0.950432 0.5
42 1 0.0250089 0.142786 0.5
43 2 0.0499985 0.0952945 0.5
44 1 0.0750107 0.142787 0.5
45 2 0.100002 0.0952945 0.5
46 1 0.125012 0.142788 0.5
47 2 0.150004 0.0952944 0.5
48 1 0.175012 0.142789 0.5
49 2 0.200006 0.0952945 0.5
50 1 0.225011 0.14279 0.5
51 2 0.250007 0.0952948 0.5
52 1 0.27501 0.14279 0.5
53 2 0.300006 0.0952954 0.5
54 1 0.325008 0.142791 0.5
55 2 0.350005 0.095296 0.5
56 1 0.375006 0.142791 0.5
57 2 0.400004 0.0952965 0.5
58 1 0.425003 0.142791 0.5
59 2 0.450003 0.0952969 0.5
60 1 0.475002 0.14279 0.5
405 1 0.200178 0.9504 0.5
82 1 0.0250308 0.23777 0.5
83 1 0.0500206 0.190279 0.5
84 1 0.0750312 0.237774 0.5
85 1 0.100021 0.190281 0.5
86 1 0.12503 0.237777 0.5
87 1 0.15002 0.190283 0.5
88 1 0.175028 0.23778 0.5
89 1 0.200019 0.190285 0.5
90 1 0.225024 0.237783 0.5
91 1 0.250016 0.190286 0.5
92 1 0.27502 0.237784 0.5
93 1 0.300013 0.190287 0.5
94 1 0.325015 0.237784 0.5
95 1 0.350009 0.190287 0.5
96 1 0.37501 0.237783 0.5
97 1 0.400006 0.190286 0.5
98 1 0.425006 0.237781 0.5
99 1 0.450003 0.190285 0.5
100 1 0.475003 0.237778 0.5
404 1 0.150152 0.950373 0.5
122 1 0.0250531 0.332754 0.5
123 1 0.050042 0.285265 0.5
124 1 0.0750531 0.332762 0.5
125 1 0.100041 0.285271 0.5
126 1 0.125051 0.33277 0.5
127 1 0.150039 0.285276 0.5
128 1 0.175047 0.332776 0.5
129 1 0.200035 0.28528 0.5
130 1 0.225042 0.332781 0.5
131 1 0.25003 0.285282 0.5
132 1 0.275035 0.332783 0.5
133 1 0.300023 0.285283 0.5
134 1 0.325027 0.332782 0.5
135 1 0.350017 0.285282 0.5
136 1 0.37502 0.332779 0.5
137 1 0.400012 0.285279 0.5
138 1 0.425014 0.332774 0.5
139 1 0.450007 0.285275 0.5
140 1 0.475009 0.332768 0.5
403 1 0.100134 0.950348 0.5
162 1 0.0250774 0.427738 0.5
163 1 0.0500653 0.380251 0.5
164 1 0.0750777 0.427751 0.5
165 1 0.100064 0.380262 0.5
166 1 0.125076 0.427764 0.5
167 1 0.150061 0.380271 0.5
168 1 0.175072 0.427775 0.5
169 1 0.200056 0.380278 0.5
170 1 0.225066 0.427783 0.5
171 1 0.250049 0.380283 0.5
172 1 0.275058 0.427787 0.5
173 1 0.300041 0.380284 0.5
174 1 0.325048 0.427787 0.5
175 1 0.350032 0.380282 0.5
176 1 0.375037 0.427782 0.5
177 1 0.400023 0.380276 0.5
178 1 0.425028 0.427772 0.5
179 1 0.450016 0.380268 0.5
180 1 0.47502 0.42776 0.5
410 3 0.450566 0.950624 0.5
202 1 0.0251026 0.52272 0.5
203 1 0.0500906 0.475237 0.5
204 1 0.0751039 0.522739 0.5
205 1 0.100091 0.475253 0.5
206 1 0.125104 0.522758 0.5
207 1 0.150089 0.475268 0.5
208 1 0.175102 0.522775 0.5
209 1 0.200084 0.47528 0.5
210 1 0.225098 0.522789 0.5
211 1 0.250077 0.475289 0.5
212 1 0.275091 0.522797 0.5
213 1 0.300068 0.475293 0.5
214 1 0.32508 0.522799 0.5
215 1 0.350056 0.47529 0.5
216 1 0.375066 0.522793 0.5
217 1 0.400044 0.475281 0.5
218 1 0.425052 0.522778 0.5
219 1 0.450033 0.475266 0.5
220 1 0.47504 0.522757 0.5
402 1 0.0501216 0.950325 0.5
242 1 0.0251249 0.617701 0.5
243 1 0.0501155 0.570221 0.5
244 1 0.0751281 0.617725 0.5
245 1 0.100117 0.570243 0.5
246 1 0.125132 0.617749 0.5
247 1 0.150119 0.570264 0.5
248 1 0.175135 0.617772 0.5
249 1 0.200118 0.570283 0.5
250 1 0.225137 0.617794 0.5
251 1 0.250115 0.570299 0.5
252 1 0.275135 0.617811 0.5
253 1 0.300107 0.570308 0.5
254 1 0.325128 0.617821 0.5
255 1 0.350095 0.570308 0.5
256 1 0.375115 0.617819 0.5
257 1 0.400079 0.570296 0.5
258 1 0.425095 0.6178 0.5
259 1 0.450062 0.570274 0.5
260 1 0.475074 0.617766 0.5
409 1 0.400423 0.950562 0.5
282 1 0.0251394 0.712679 0.5
283 1 0.0501354 0.665203 0.5
284 1 0.0751452 0.712705 0.5
285 1 0.100141 0.665229 0.5
286 1 0.125154 0.712733 0.5
287 1 0.150147 0.665255 0.5
288 1 0.175164 0.712762 0.5
289 1 0.200154 0.665282 0.5
290 1 0.225176 0.712791 0.5
291 1 0.250159 0.665306 0.5
292 1 0.275187 0.71282 0.5
293 1 0.300161 0.665326 0.5
294 1 0.325193 0.712844 0.5
295 1 0.350155 0.665337 0.5
296 1 0.375191 0.712858 0.5
297 1 0.40014 0.665332 0.5
298 1 0.425174 0.712851 0.5
299 1 0.450114 0.665302 0.5
300 1 0.475137 0.712803 0.5
321 1 0.000140081 0.760154 0.5
322 1 0.0251415 0.807653 0.5
323 1 0.0501452 0.76018 0.5
324 1 0.0751498 0.80768 0.5
325 1 0.100154 0.760207 0.5
326 1 0.125163 0.807708 0.5
327 1 0.150167 0.760237 0.5
328 1 0.175181 0.807739 0.5
329 1 0.200183 0.760268 0.5
330 1 0.225204 0.807772 0.5
331 1 0.250202 0.760301 0.5
332 1 0.275231 0.807809 0.5
333 1 0.30022 0.760334 0.5
334 1 0.32526 0.807849 0.5
335 1 0.350235 0.760365 0.5
336 1 0.375288 0.807888 0.5
337 1 0.400238 0.760384 0.5
338 1 0.425304 0.807919 0.5
339 1 0.450221 0.760379 0.5
340 1 0.475292 0.807929 0.5
408 1 0.350329 0.950511 0.5
362 1 0.0251291 0.902627 0.5
363 1 0.050141 0.855152 0.5
364 1 0.0751385 0.902651 0.5
365 1 0.100153 0.855178 0.5
366 1 0.125154 0.902676 0.5
367 1 0.15017 0.855206 0.5
368 1 0.175176 0.902705 0.5
369 1 0.200194 0.855238 0.5
370 1 0.225206 0.902737 0.5
371 1 0.250225 0.855274 0.5
372 1 0.275245 0.902774 0.5
373 1 0.300263 0.855315 0.5
374 1 0.325297 0.902817 0.5
375 1 0.350308 0.855361 0.5
376 1 0.375365 0.902869 0.5
377 1 0.400356 0.855413 0.5
378 1 0.425452 0.902932 0.5
379 3 0.450394 0.855465 0.5
380 3 0.475569 0.903043 0.5
407 1 0.300262 0.950468 0.5
261 1 0.500049 0.570244 0.5
401 1 0.000115161 0.950305 0.5
361 1 0.000134466 0.855128 0.5
301 1 0.500088 0.665252 0.5
21 2 0.500002 0.000126195 0.5
22 2 0.525001 0.0478101 0.5
23 2 0.550001 0.00012692 0.5
24 2 0.575 0.0478103 0.5
25 2 0.599999 0.00012692 0.5
26 2 0.624999 0.0478101 0.5
27 2 0.649998 0.000126195 0.5
28 2 0.674998 0.0478095 0.5
29 2 0.699997 0.000124689 0.5
30 2 0.724997 0.0478085 0.5
31 2 0.749996 0.000122341 0.5
32 2 0.774996 0.0478071 0.5
33 2 0.799996 0.000119162 0.5
34 2 0.824995 0.0478054 0.5
35 2 0.849996 0.000115299 0.5
36 2 0.874995 0.0478033 0.5
37 2 0.899996 0.000111091 0.5
38 2 0.924995 0.0478008 0.5
39 2 0.949997 0.00010707 0.5
40 2 0.974996 0.0477983 0.5
61 2 0.500002 0.0952972 0.5
62 1 0.525 0.14279 0.5
63 2 0.550001 0.0952973 0.5
64 1 0.575 0.142789 0.5
65 2 0.599999 0.0952973 0.5
66 1 0.624999 0.142788 0.5
67 2 0.649998 0.0952972 0.5
68 1 0.675 0.142788 0.5
69 2 0.699997 0.0952969 0.5
70 1 0.725 0.142787 0.5
71 2 0.749996 0.0952965 0.5
72 1 0.775001 0.142786 0.5
73 2 0.799995 0.095296 0.5
74 1 0.825002 0.142786 0.5
75 2 0.849994 0.0952954 0.5
76 1 0.875004 0.142786 0.5
77 2 0.899993 0.0952948 0.5
78 1 0.925005 0.142785 0.5
79 2 0.949994 0.0952945 0.5
80 1 0.975007 0.142786 0.5
101 1 0.500001 0.190283 0.5
102 1 0.525001 0.237775 0.5
103 1 0.55 0.190281 0.5
104 1 0.575001 0.237772 0.5
105 1 0.6 0.19028 0.5
106 1 0.625002 0.237768 0.5
107 1 0.650001 0.190278 0.5
108 1 0.675005 0.237766 0.5
109 1 0.700003 0.190277 0.5
110 1 0.725009 0.237764 0.5
111 1 0.750005 0.190275 0.5
112 1 0.775013 0.237762 0.5
113 1 0.800008 0.190275 0.5
114 1 0.825018 0.237762 0.5
115 1 0.850011 0.190275 0.5
116 1 0.875022 0.237763 0.5
117 1 0.900014 0.190275 0.5
118 1 0.925026 0.237764 0.5
119 1 0.950017 0.190276 0.5
120 1 0.975029 0.237767 0.5
420 1 0.950114 0.950285 0.5
142 1 0.525006 0.33276 0.5
143 1 0.550003 0.285265 0.5
144 1 0.575006 0.332752 0.5
145 1 0.600004 0.28526 0.5
146 1 0.625009 0.332745 0.5
147 1 0.650007 0.285255 0.5
148 1 0.675014 0.332739 0.5
149 1 0.700011 0.285251 0.5
150 1 0.72502 0.332735 0.5
151 1 0.750017 0.285249 0.5
152 1 0.775027 0.332733 0.5
153 1 0.800023 0.285248 0.5
154 1 0.825035 0.332733 0.5
155 1 0.850029 0.285249 0.5
156 1 0.875042 0.332736 0.5
157 1 0.900034 0.285251 0.5
158 1 0.925047 0.33274 0.5
159 1 0.950038 0.285255 0.5
160 1 0.975051 0.332747 0.5
419 1 0.900116 0.950265 0.5
182 1 0.525016 0.427746 0.5
183 1 0.55001 0.380247 0.5
184 1 0.575016 0.427731 0.5
185 1 0.600012 0.380237 0.5
186 1 0.62502 0.427718 0.5
187 1 0.650016 0.380228 0.5
188 1 0.675027 0.427708 0.5
189 1 0.700023 0.380221 0.5
190 1 0.725036 0.4277 0.5
191 1 0.750032 0.380217 0.5
192 1 0.775047 0.427697 0.5
193 1 0.800041 0.380216 0.5
194 1 0.825056 0.427698 0.5
195 1 0.850049 0.380218 0.5
196 1 0.875065 0.427704 0.5
197 1 0.900056 0.380223 0.5
198 1 0.925071 0.427713 0.5
199 1 0.950061 0.380231 0.5
200 1 0.975075 0.427724 0.5
418 1 0.850123 0.950245 0.5
222 1 0.525033 0.522732 0.5
223 1 0.550023 0.475229 0.5
224 1 0.575033 0.522708 0.5
225 1 0.600025 0.475211 0.5
226 1 0.625038 0.522685 0.5
227 1 0.650032 0.475195 0.5
228 1 0.675048 0.522667 0.5
229 1 0.700042 0.475183 0.5
230 1 0.725061 0.522656 0.5
231 1 0.750053 0.475177 0.5
232 1 0.775074 0.522652 0.5
233 1 0.800064 0.475176 0.5
234 1 0.825084 0.522657 0.5
235 1 0.850074 0.475181 0.5
236 1 0.875092 0.522668 0.5
237 1 0.900081 0.475192 0.5
238 1 0.925097 0.522683 0.5
239 1 0.950086 0.475205 0.5
240 1 0.9751 0.522701 0.5
281 1 1.00013 0.665177 0.5
262 1 0.52506 0.617723 0.5
263 1 0.550044 0.570211 0.5
264 1 0.575057 0.61768 0.5
265 1 0.600046 0.570179 0.5
266 1 0.625065 0.617641 0.5
267 1 0.650056 0.570153 0.5
268 1 0.675081 0.617613 0.5
269 1 0.70007 0.570134 0.5
270 1 0.725099 0.617597 0.5
271 1 0.750085 0.570126 0.5
272 1 0.775112 0.617598 0.5
273 1 0.800097 0.570129 0.5
274 1 0.825118 0.617612 0.5
275 1 0.850104 0.570141 0.5
276 1 0.87512 0.617632 0.5
277 1 0.900108 0.570159 0.5
278 1 0.925121 0.617654 0.5
279 1 0.950111 0.570178 0.5
280 1 0.975123 0.617677 0.5
411 3 0.50087 0.950834 0.5
302 1 0.525105 0.712727 0.5
303 1 0.550075 0.665193 0.5
304 1 0.575094 0.712646 0.5
305 1 0.600077 0.665137 0.5
306 1 0.625108 0.712576 0.5
307 1 0.650094 0.665093 0.5
308 1 0.675136 0.712529 0.5
309 1 0.700116 0.665066 0.5
310 1 0.725159 0.712518 0.5
311 1 0.750132 0.665062 0.5
312 1 0.775158 0.712544 0.5
313 1 0.800136 0.66508 0.5
314 1 0.825149 0.712575 0.5
315 1 0.850134 0.665104 0.5
316 1 0.875142 0.712602 0.5
317 1 0.900131 0.665128 0.5
318 1 0.925137 0.712628 0.5
319 1 0.950131 0.665153 0.5
320 1 0.975137 0.712653 0.5
417 1 0.800135 0.950226 0.5
342 1 0.525193 0.807783 0.5
343 1 0.550123 0.760183 0.5
344 1 0.575147 0.807599 0.5
345 1 0.600124 0.760072 0.5
346 1 0.625184 0.807447 0.5
347 1 0.650159 0.759989 0.5
348 1 0.675254 0.807371 0.5
349 1 0.700197 0.75996 0.5
350 1 0.725217 0.807459 0.5
351 1 0.750185 0.760004 0.5
352 1 0.775181 0.807519 0.5
353 1 0.800166 0.760046 0.5
354 1 0.825158 0.807555 0.5
355 1 0.850151 0.760077 0.5
356 1 0.875145 0.807581 0.5
357 1 0.900142 0.760104 0.5
358 1 0.925139 0.807605 0.5
359 1 0.950139 0.760129 0.5
360 1 0.975138 0.807629 0.5
381 3 0.500408 0.855532 0.5
382 3 0.525701 0.903307 0.5
383 3 0.550214 0.855227 0.5
384 3 0.575276 0.902545 0.5
385 3 0.600204 0.854927 0.5
386 3 0.625583 0.901937 0.5
387 3 0.65035 0.854724 0.5
388 3 0.675316 0.902374 0.5
389 3 0.700249 0.854912 0.5
390 3 0.725201 0.902475 0.5
391 3 0.750184 0.854995 0.5
392 3 0.77515 0.902523 0.5
393 1 0.800158 0.855036 0.5
394 1 0.825139 0.902542 0.5
395 1 0.850144 0.85506 0.5
396 1 0.87513 0.902563 0.5
397 1 0.900136 0.855082 0.5
398 1 0.925125 0.902584 0.5
399 1 0.950133 0.855105 0.5
400 1 0.975125 0.902605 0.5
421 3 0.58673 1.0008 0.5
412 3 0.551525 0.951778 0.5
413 3 0.60104 0.948941 0.5
414 3 0.650377 0.950094 0.5
415 3 0.70022 0.950163 0.5
416 3 0.750152 0.950214 0.5
201 1 1.00009 0.475221 0.5
1 2 0.999998 0.000103872 0.5
341 1 0.500165 0.760299 0.5
41 2 0.999996 0.0952944 0.5
181 1 0.500012 0.380258 0.5
141 1 0.500004 0.28527 0.5
81 1 1.00002 0.190277 0.5
121 1 1.00004 0.285259 0.5
161 1 1.00006 0.380241 0.5
241 1 1.00011 0.5702 0.5
ITEM: TIMESTEP
107
ITEM: NUMBER OF ATOMS
421
ITEM: BOX BOUNDS pp ss pp
0.0000000000000000e+00 2.2653923264628304e+01
2.1879574711865565e-01 2.0418441515958065e+01
-2.8317404080785380e-01 2.8317404080785380e-01
ITEM: ATOMS id type xs ys zs
361 1 0.000176564 0.85435 0.5
2 2 0.0249978 0.0477534 0.5
3 2 0.0499993 0.000102002 0.5
4 2 0.075 0.0477527 0.5
5 2 0.100001 0.000102002 0.5
6 2 0.125002 0.0477534 0.5
7 2 0.150002 0.000103779 0.5
8 2 0.175004 0.0477552 0.5
9 2 0.200003 0.000106973 0.5
10 2 0.225005 0.0477576 0.5
11 2 0.250004 0.000110991 0.5
12 2 0.275005 0.0477601 0.5
13 2 0.300004 0.000115195 0.5
14 2 0.325005 0.0477623 0.5
15 2 0.350004 0.000119054 0.5
16 2 0.375004 0.047764 0.5
17 2 0.400004 0.000122231 0.5
18 2 0.425003 0.0477653 0.5
19 2 0.450003 0.000124576 0.5
20 2 0.475002 0.0477663 0.5
406 1 0.250257 0.949567 0.5
42 1 0.025014 0.142656 0.5
43 2 0.0499985 0.0952084 0.5
44 1 0.0750157 0.142657 0.5
45 2 0.100002 0.0952084 0.5
46 1 0.125017 0.142658 0.5
47 2 0.150004 0.0952084 0.5
48 1 0.175017 0.142659 0.5
49 2 0.200006 0.0952085 0.5
50 1 0.225016 0.14266 0.5
51 2 0.250007 0.0952088 0.5
52 1 0.275015 0.142661 0.5
53 2 0.300006 0.0952094 0.5
54 1 0.325013 0.142661 0.5
55 2 0.350005 0.09521 0.5
56 1 0.37501 0.142661 0.5
57 2 0.400004 0.0952105 0.5
58 1 0.425008 0.142661 0.5
59 2 0.450003 0.0952109 0.5
60 1 0.475007 0.142661 0.5
405 1 0.200222 0.949536 0.5
82 1 0.0250458 0.237554 0.5
83 1 0.0500306 0.190106 0.5
84 1 0.075046 0.237557 0.5
85 1 0.100031 0.190108 0.5
86 1 0.125045 0.237561 0.5
87 1 0.15003 0.19011 0.5
88 1 0.175042 0.237564 0.5
89 1 0.200028 0.190112 0.5
90 1 0.225038 0.237566 0.5
91 1 0.250025 0.190113 0.5
92 1 0.275034 0.237567 0.5
93 1 0.300022 0.190113 0.5
94 1 0.325029 0.237567 0.5
95 1 0.350019 0.190113 0.5
96 1 0.375024 0.237566 0.5
97 1 0.400015 0.190112 0.5
98 1 0.42502 0.237563 0.5
99 1 0.450013 0.190111 0.5
100 1 0.475018 0.23756 0.5
404 1 0.150196 0.949509 0.5
122 1 0.0250771 0.332451 0.5
123 1 0.0500615 0.285005 0.5
124 1 0.0750768 0.332459 0.5
125 1 0.100061 0.28501 0.5
126 1 0.125075 0.332466 0.5
127 1 0.150058 0.285015 0.5
128 1 0.17507 0.332472 0.5
129 1 0.200054 0.285019 0.5
130 1 0.225065 0.332476 0.5
131 1 0.250048 0.285021 0.5
132 1 0.275058 0.332478 0.5
133 1 0.300042 0.285022 0.5
134 1 0.32505 0.332477 0.5
135 1 0.350036 0.285021 0.5
136 1 0.375043 0.332474 0.5
137 1 0.40003 0.285018 0.5
138 1 0.425036 0.332469 0.5
139 1 0.450026 0.285013 0.5
140 1 0.475032 0.332462 0.5
403 1 0.100177 0.949485 0.5
162 1 0.0251089 0.427348 0.5
163 1 0.0500931 0.379905 0.5
164 1 0.0751089 0.427361 0.5
165 1 0.100092 0.379915 0.5
166 1 0.125107 0.427373 0.5
167 1 0.150088 0.379924 0.5
168 1 0.175103 0.427384 0.5
169 1 0.200083 0.379931 0.5
170 1 0.225096 0.427392 0.5
171 1 0.250076 0.379935 0.5
172 1 0.275088 0.427395 0.5
173 1 0.300067 0.379936 0.5
174 1 0.325078 0.427394 0.5
175 1 0.350058 0.379933 0.5
176 1 0.375067 0.427388 0.5
177 1 0.40005 0.379927 0.5
178 1 0.425057 0.427379 0.5
179 1 0.450043 0.379918 0.5
180 1 0.47505 0.427366 0.5
410 3 0.450603 0.949756 0.5
202 1 0.0251398 0.522244 0.5
203 1 0.050125 0.474804 0.5
204 1 0.0751407 0.522263 0.5
205 1 0.100125 0.47482 0.5
206 1 0.12514 0.522281 0.5
207 1 0.150122 0.474834 0.5
208 1 0.175138 0.522297 0.5
209 1 0.200117 0.474846 0.5
210 1 0.225134 0.52231 0.5
211 1 0.25011 0.474854 0.5
212 1 0.275126 0.522318 0.5
213 1 0.3001 0.474857 0.5
214 1 0.325115 0.52232 0.5
215 1 0.350089 0.474853 0.5
216 1 0.375101 0.522312 0.5
217 1 0.400076 0.474843 0.5
218 1 0.425087 0.522297 0.5
219 1 0.450066 0.474828 0.5
220 1 0.475075 0.522275 0.5
402 1 0.0501638 0.949462 0.5
242 1 0.0251658 0.617139 0.5
243 1 0.0501547 0.569702 0.5
244 1 0.0751688 0.617163 0.5
245 1 0.100156 0.569724 0.5
246 1 0.125172 0.617186 0.5
247 1 0.150157 0.569744 0.5
248 1 0.175175 0.617209 0.5
249 1 0.200156 0.569763 0.5
250 1 0.225176 0.617229 0.5
251 1 0.250152 0.569777 0.5
252 1 0.275174 0.617246 0.5
253 1 0.300144 0.569785 0.5
254 1 0.325167 0.617254 0.5
255 1 0.350132 0.569784 0.5
256 1 0.375153 0.617251 0.5
257 1 0.400116 0.569772 0.5
258 1 0.425132 0.617231 0.5
259 1 0.450099 0.569748 0.5
260 1 0.475111 0.617196 0.5
409 1 0.400463 0.949695 0.5
282 1 0.0251821 0.712031 0.5
283 1 0.0501774 0.664598 0.5
284 1 0.075188 0.712057 0.5
285 1 0.100183 0.664624 0.5
286 1 0.125196 0.712085 0.5
287 1 0.150189 0.664649 0.5
288 1 0.175207 0.712113 0.5
289 1 0.200195 0.664675 0.5
290 1 0.225218 0.712141 0.5
291 1 0.2502 0.664698 0.5
292 1 0.275228 0.712168 0.5
293 1 0.3002 0.664717 0.5
294 1 0.325233 0.712191 0.5
295 1 0.350194 0.664726 0.5
296 1 0.37523 0.712203 0.5
297 1 0.400178 0.664721 0.5
298 1 0.425212 0.712196 0.5
299 1 0.450152 0.66469 0.5
300 1 0.475175 0.712147 0.5
321 1 0.000182862 0.759463 0.5
322 1 0.0251844 0.806919 0.5
323 1 0.0501884 0.759489 0.5
324 1 0.0751932 0.806946 0.5
325 1 0.100198 0.759516 0.5
326 1 0.125207 0.806973 0.5
327 1 0.15021 0.759545 0.5
328 1 0.175224 0.807004 0.5
329 1 0.200226 0.759575 0.5
330 1 0.225247 0.807036 0.5
331 1 0.250244 0.759607 0.5
332 1 0.275273 0.807072 0.5
333 1 0.300261 0.759639 0.5
334 1 0.325301 0.80711 0.5
335 1 0.350275 0.759668 0.5
336 1 0.375328 0.807148 0.5
337 1 0.400278 0.759687 0.5
338 1 0.425343 0.807178 0.5
339 1 0.450259 0.759681 0.5
340 1 0.475329 0.807188 0.5
408 1 0.35037 0.949644 0.5
362 1 0.0251712 0.901807 0.5
363 1 0.050184 0.854375 0.5
364 1 0.0751816 0.90183 0.5
365 1 0.100196 0.854401 0.5
366 1 0.125197 0.901856 0.5
367 1 0.150214 0.854429 0.5
368 1 0.17522 0.901884 0.5
369 1 0.200238 0.85446 0.5
370 1 0.225249 0.901915 0.5
371 1 0.250268 0.854495 0.5
372 1 0.275288 0.901951 0.5
373 1 0.300305 0.854534 0.5
374 1 0.325339 0.901994 0.5
375 1 0.350349 0.85458 0.5
376 1 0.375405 0.902045 0.5
377 1 0.400395 0.85463 0.5
378 1 0.425491 0.902107 0.5
379 3 0.450431 0.854682 0.5
380 3 0.475605 0.902219 0.5
407 1 0.300305 0.949603 0.5
401 1 0.00015585 0.94944 0.5
281 1 0.000173991 0.664573 0.5
241 1 0.000152687 0.569681 0.5
161 1 9.23051e-05 0.379894 0.5
121 1 6.07737e-05 0.285 0.5
81 1 2.93976e-05 0.190104 0.5
201 1 0.000123866 0.474788 0.5
21 2 0.500002 0.000126081 0.5
22 2 0.525001 0.0477669 0.5
23 2 0.550001 0.000126806 0.5