ITEM: TIMESTEP
0
ITEM: NUMBER OF ATOMS
421
ITEM: BOX BOUNDS pp ss pp
0.0000000000000000e+00 2.2653923264628304e+01
2.1879574711865565e-01 2.0502060413284674e+01
-2.8317404080785380e-01 2.8317404080785380e-01
ITEM: ATOMS id type xs ys zs
221 1 0.499997 0.472863 0.5
2 2 0.0249978 0.0475565 0.5
3 2 0.0499993 0.000101582 0.5
4 2 0.075 0.0475559 0.5
5 2 0.100001 0.000101582 0.5
6 2 0.125002 0.0475565 0.5
7 2 0.150002 0.000103351 0.5
8 2 0.175004 0.0475583 0.5
9 2 0.200003 0.000106532 0.5
10 2 0.225005 0.0475607 0.5
11 2 0.250004 0.000110533 0.5
12 2 0.275005 0.0475632 0.5
13 2 0.300004 0.00011472 0.5
14 2 0.325005 0.0475654 0.5
15 2 0.350004 0.000118563 0.5
16 2 0.375004 0.0475671 0.5
17 2 0.400004 0.000121727 0.5
18 2 0.425003 0.0475684 0.5
19 2 0.450003 0.000124062 0.5
20 2 0.475002 0.0475694 0.5
406 1 0.250001 0.94563 0.5
42 1 0.0249972 0.142076 0.5
43 2 0.0499985 0.0948159 0.5
44 1 0.075 0.142077 0.5
45 2 0.100002 0.0948159 0.5
46 1 0.125003 0.142076 0.5
47 2 0.150004 0.0948159 0.5
48 1 0.175005 0.142074 0.5
49 2 0.200006 0.094816 0.5
50 1 0.225007 0.142073 0.5
51 2 0.250007 0.0948163 0.5
52 1 0.275007 0.142072 0.5
53 2 0.300006 0.0948169 0.5
54 1 0.325007 0.142072 0.5
55 2 0.350005 0.0948175 0.5
56 1 0.375006 0.142072 0.5
57 2 0.400004 0.094818 0.5
58 1 0.425004 0.142072 0.5
59 2 0.450003 0.0948184 0.5
60 1 0.475003 0.142071 0.5
405 1 0.199986 0.945644 0.5
82 1 0.0249986 0.236598 0.5
83 1 0.049999 0.189342 0.5
84 1 0.075 0.236599 0.5
85 1 0.100001 0.189342 0.5
86 1 0.125001 0.236598 0.5
87 1 0.150003 0.18934 0.5
88 1 0.175003 0.236596 0.5
89 1 0.200005 0.189337 0.5
90 1 0.225006 0.236593 0.5
91 1 0.250007 0.189334 0.5
92 1 0.275008 0.236589 0.5
93 1 0.300008 0.189333 0.5
94 1 0.325009 0.236587 0.5
95 1 0.350007 0.189332 0.5
96 1 0.375008 0.236586 0.5
97 1 0.400006 0.189332 0.5
98 1 0.425007 0.236586 0.5
99 1 0.450004 0.189332 0.5
100 1 0.475005 0.236586 0.5
404 1 0.14998 0.945618 0.5
122 1 0.024999 0.331102 0.5
123 1 0.0499995 0.283849 0.5
124 1 0.075 0.331103 0.5
125 1 0.100001 0.283849 0.5
126 1 0.125001 0.331102 0.5
127 1 0.150002 0.283848 0.5
128 1 0.175002 0.3311 0.5
129 1 0.200004 0.283845 0.5
130 1 0.225005 0.331098 0.5
131 1 0.250006 0.283842 0.5
132 1 0.275007 0.331095 0.5
133 1 0.300009 0.283838 0.5
134 1 0.325011 0.331091 0.5
135 1 0.35001 0.283836 0.5
136 1 0.375012 0.331089 0.5
137 1 0.40001 0.283836 0.5
138 1 0.425013 0.331089 0.5
139 1 0.450008 0.283835 0.5
140 1 0.475011 0.33109 0.5
403 1 0.0999905 0.945587 0.5
162 1 0.024999 0.425613 0.5
163 1 0.0499993 0.378355 0.5
164 1 0.075 0.425614 0.5
165 1 0.100001 0.378355 0.5
166 1 0.125001 0.425613 0.5
167 1 0.150001 0.378355 0.5
168 1 0.175002 0.425612 0.5
169 1 0.200003 0.378352 0.5
170 1 0.225005 0.42561 0.5
171 1 0.250006 0.37835 0.5
172 1 0.275008 0.425608 0.5
173 1 0.300009 0.378347 0.5
174 1 0.325012 0.425605 0.5
175 1 0.350014 0.378345 0.5
176 1 0.375013 0.425604 0.5
177 1 0.400015 0.378344 0.5
178 1 0.425009 0.425608 0.5
179 1 0.450013 0.378347 0.5
180 1 0.475002 0.425611 0.5
410 3 0.450049 0.945608 0.5
202 1 0.0249985 0.520119 0.5
203 1 0.0499994 0.472867 0.5
204 1 0.075 0.52012 0.5
205 1 0.100001 0.472867 0.5
206 1 0.125002 0.520119 0.5
207 1 0.150002 0.472866 0.5
208 1 0.175004 0.520119 0.5
209 1 0.200004 0.472865 0.5
210 1 0.225005 0.520117 0.5
211 1 0.250007 0.472863 0.5
212 1 0.275002 0.520117 0.5
213 1 0.300008 0.472862 0.5
214 1 0.324995 0.520121 0.5
215 1 0.350004 0.472862 0.5
216 1 0.374989 0.520123 0.5
217 1 0.399999 0.472866 0.5
218 1 0.424989 0.520119 0.5
219 1 0.449996 0.472866 0.5
220 1 0.474993 0.520114 0.5
402 1 0.0500095 0.945587 0.5
242 1 0.0249956 0.614628 0.5
243 1 0.0499984 0.567377 0.5
244 1 0.075 0.614628 0.5
245 1 0.100002 0.567377 0.5
246 1 0.125004 0.614628 0.5
247 1 0.150005 0.567377 0.5
248 1 0.175003 0.61463 0.5
249 1 0.200003 0.567377 0.5
250 1 0.224995 0.614636 0.5
251 1 0.249997 0.56738 0.5
252 1 0.274984 0.614642 0.5
253 1 0.299988 0.567385 0.5
254 1 0.324976 0.614643 0.5
255 1 0.349981 0.567385 0.5
256 1 0.374979 0.614637 0.5
257 1 0.399983 0.56738 0.5
258 1 0.424985 0.614628 0.5
259 1 0.449988 0.567372 0.5
260 1 0.474991 0.614622 0.5
409 1 0.400035 0.945588 0.5
282 1 0.024998 0.709127 0.5
283 1 0.0499969 0.661878 0.5
284 1 0.075 0.709123 0.5
285 1 0.100003 0.661878 0.5
286 1 0.125002 0.709127 0.5
287 1 0.150003 0.661882 0.5
288 1 0.174995 0.70914 0.5
289 1 0.199995 0.661892 0.5
290 1 0.224983 0.709152 0.5
291 1 0.249982 0.6619 0.5
292 1 0.274976 0.709155 0.5
293 1 0.299974 0.661901 0.5
294 1 0.324978 0.70915 0.5
295 1 0.349977 0.661896 0.5
296 1 0.374984 0.709141 0.5
297 1 0.399983 0.661886 0.5
298 1 0.42499 0.709135 0.5
299 1 0.449989 0.661881 0.5
300 1 0.474995 0.709129 0.5
321 1 3.64377e-06 0.756391 0.5
322 1 0.025002 0.803644 0.5
323 1 0.0499996 0.756376 0.5
324 1 0.075 0.803632 0.5
325 1 0.1 0.756376 0.5
326 1 0.124998 0.803644 0.5
327 1 0.149996 0.756391 0.5
328 1 0.174989 0.803665 0.5
329 1 0.199986 0.756407 0.5
330 1 0.224981 0.803676 0.5
331 1 0.249978 0.756413 0.5
332 1 0.274982 0.803673 0.5
333 1 0.29998 0.756408 0.5
334 1 0.32499 0.803661 0.5
335 1 0.349986 0.7564 0.5
336 1 0.375003 0.803654 0.5
337 1 0.399995 0.756394 0.5
338 1 0.425016 0.803651 0.5
339 1 0.450003 0.756384 0.5
340 1 0.475017 0.803643 0.5
408 1 0.350024 0.945595 0.5
362 1 0.0250069 0.89815 0.5
363 1 0.0500014 0.850887 0.5
364 1 0.075 0.898133 0.5
365 1 0.0999986 0.850887 0.5
366 1 0.124993 0.89815 0.5
367 1 0.149994 0.850913 0.5
368 1 0.174988 0.898182 0.5
369 1 0.199985 0.850932 0.5
370 1 0.224986 0.898191 0.5
371 1 0.249982 0.85093 0.5
372 1 0.274994 0.898171 0.5
373 1 0.299993 0.850917 0.5
374 1 0.32501 0.898154 0.5
375 1 0.350007 0.850905 0.5
376 1 0.375023 0.898147 0.5
377 1 0.400022 0.850899 0.5
378 1 0.425037 0.898151 0.5
379 3 0.450032 0.850906 0.5
380 3 0.475046 0.898187 0.5
407 1 0.300014 0.945601 0.5
261 1 0.499993 0.567367 0.5
401 1 2.0232e-05 0.945618 0.5
361 1 6.38311e-06 0.850913 0.5
301 1 0.499992 0.661874 0.5
21 2 0.500002 0.000125561 0.5
22 2 0.525001 0.04757 0.5
23 2 0.550001 0.000126283 0.5
24 2 0.575 0.0475702 0.5
25 2 0.599999 0.000126283 0.5
26 2 0.624999 0.04757 0.5
27 2 0.649998 0.000125561 0.5
28 2 0.674998 0.0475694 0.5
29 2 0.699997 0.000124062 0.5
30 2 0.724997 0.0475684 0.5
31 2 0.749996 0.000121727 0.5
32 2 0.774996 0.0475671 0.5
33 2 0.799996 0.000118563 0.5
34 2 0.824995 0.0475654 0.5
35 2 0.849996 0.00011472 0.5
36 2 0.874995 0.0475632 0.5
37 2 0.899996 0.000110533 0.5
38 2 0.924995 0.0475607 0.5
39 2 0.949997 0.000106532 0.5
40 2 0.974996 0.0475583 0.5
61 2 0.500002 0.0948186 0.5
62 1 0.525001 0.142071 0.5
63 2 0.550001 0.0948187 0.5
64 1 0.575 0.142071 0.5
65 2 0.599999 0.0948187 0.5
66 1 0.624999 0.142071 0.5
67 2 0.649998 0.0948186 0.5
68 1 0.674997 0.142071 0.5
69 2 0.699997 0.0948184 0.5
70 1 0.724996 0.142072 0.5
71 2 0.749996 0.094818 0.5
72 1 0.774994 0.142072 0.5
73 2 0.799995 0.0948175 0.5
74 1 0.824993 0.142072 0.5
75 2 0.849994 0.0948169 0.5
76 1 0.874993 0.142072 0.5
77 2 0.899993 0.0948163 0.5
78 1 0.924993 0.142073 0.5
79 2 0.949994 0.094816 0.5
80 1 0.974995 0.142074 0.5
101 1 0.500002 0.189332 0.5
102 1 0.525002 0.236585 0.5
103 1 0.550001 0.189332 0.5
104 1 0.575 0.236585 0.5
105 1 0.599999 0.189332 0.5
106 1 0.624998 0.236585 0.5
107 1 0.649998 0.189332 0.5
108 1 0.674995 0.236586 0.5
109 1 0.699996 0.189332 0.5
110 1 0.724993 0.236586 0.5
111 1 0.749994 0.189332 0.5
112 1 0.774992 0.236586 0.5
113 1 0.799993 0.189332 0.5
114 1 0.824991 0.236587 0.5
115 1 0.849992 0.189333 0.5
116 1 0.874992 0.236589 0.5
117 1 0.899993 0.189334 0.5
118 1 0.924994 0.236593 0.5
119 1 0.949995 0.189337 0.5
120 1 0.974997 0.236596 0.5
420 1 0.950014 0.945644 0.5
142 1 0.525006 0.331093 0.5
143 1 0.550003 0.283835 0.5
144 1 0.575 0.331096 0.5
145 1 0.599997 0.283835 0.5
146 1 0.624994 0.331093 0.5
147 1 0.649994 0.283835 0.5
148 1 0.674989 0.33109 0.5
149 1 0.699992 0.283835 0.5
150 1 0.724987 0.331089 0.5
151 1 0.74999 0.283836 0.5
152 1 0.774988 0.331089 0.5
153 1 0.79999 0.283836 0.5
154 1 0.824989 0.331091 0.5
155 1 0.849991 0.283838 0.5
156 1 0.874993 0.331095 0.5
157 1 0.899994 0.283842 0.5
158 1 0.924995 0.331098 0.5
159 1 0.949996 0.283845 0.5
160 1 0.974998 0.3311 0.5
419 1 0.899999 0.94563 0.5
182 1 0.525001 0.425611 0.5
183 1 0.550001 0.378352 0.5
184 1 0.575 0.425611 0.5
185 1 0.599999 0.378352 0.5
186 1 0.624999 0.425611 0.5
187 1 0.649993 0.378351 0.5
188 1 0.674998 0.425611 0.5
189 1 0.699987 0.378347 0.5
190 1 0.724991 0.425608 0.5
191 1 0.749985 0.378344 0.5
192 1 0.774987 0.425604 0.5
193 1 0.799986 0.378345 0.5
194 1 0.824988 0.425605 0.5
195 1 0.849991 0.378347 0.5
196 1 0.874992 0.425608 0.5
197 1 0.899994 0.37835 0.5
198 1 0.924995 0.42561 0.5
199 1 0.949997 0.378352 0.5
200 1 0.974998 0.425612 0.5
418 1 0.849986 0.945601 0.5
222 1 0.524995 0.52011 0.5
223 1 0.549999 0.472863 0.5
224 1 0.575 0.520109 0.5
225 1 0.600001 0.472863 0.5
226 1 0.625005 0.52011 0.5
227 1 0.650003 0.472863 0.5
228 1 0.675007 0.520114 0.5
229 1 0.700004 0.472866 0.5
230 1 0.725011 0.520119 0.5
231 1 0.750001 0.472866 0.5
232 1 0.775011 0.520123 0.5
233 1 0.799996 0.472862 0.5
234 1 0.825005 0.520121 0.5
235 1 0.849992 0.472862 0.5
236 1 0.874998 0.520117 0.5
237 1 0.899993 0.472863 0.5
238 1 0.924995 0.520117 0.5
239 1 0.949996 0.472865 0.5
240 1 0.974996 0.520119 0.5
281 1 0.999997 0.661882 0.5
262 1 0.524994 0.614619 0.5
263 1 0.549998 0.567366 0.5
264 1 0.575 0.614618 0.5
265 1 0.600002 0.567366 0.5
266 1 0.625006 0.614619 0.5
267 1 0.650007 0.567367 0.5
268 1 0.675009 0.614622 0.5
269 1 0.700012 0.567372 0.5
270 1 0.725015 0.614628 0.5
271 1 0.750017 0.56738 0.5
272 1 0.775021 0.614637 0.5
273 1 0.800019 0.567385 0.5
274 1 0.825024 0.614643 0.5
275 1 0.850012 0.567385 0.5
276 1 0.875016 0.614642 0.5
277 1 0.900003 0.56738 0.5
278 1 0.925005 0.614636 0.5
279 1 0.949997 0.567377 0.5
280 1 0.974997 0.61463 0.5
411 3 0.500093 0.945687 0.5
302 1 0.525 0.709124 0.5
303 1 0.549997 0.661869 0.5
304 1 0.575 0.709119 0.5
305 1 0.600003 0.661869 0.5
306 1 0.625 0.709124 0.5
307 1 0.650008 0.661874 0.5
308 1 0.675005 0.709129 0.5
309 1 0.700011 0.661881 0.5
310 1 0.72501 0.709135 0.5
311 1 0.750017 0.661886 0.5
312 1 0.775016 0.709141 0.5
313 1 0.800023 0.661896 0.5
314 1 0.825022 0.70915 0.5
315 1 0.850026 0.661901 0.5
316 1 0.875024 0.709155 0.5
317 1 0.900018 0.6619 0.5
318 1 0.925017 0.709152 0.5
319 1 0.950005 0.661892 0.5
320 1 0.975005 0.70914 0.5
417 1 0.799976 0.945595 0.5
342 1 0.525012 0.803645 0.5
343 1 0.550004 0.756375 0.5
344 1 0.575 0.80365 0.5
345 1 0.599996 0.756375 0.5
346 1 0.624988 0.803645 0.5
347 1 0.649991 0.756376 0.5
348 1 0.674983 0.803643 0.5
349 1 0.699997 0.756384 0.5
350 1 0.724984 0.803651 0.5
351 1 0.750005 0.756394 0.5
352 1 0.774997 0.803654 0.5
353 1 0.800014 0.7564 0.5
354 1 0.82501 0.803661 0.5
355 1 0.85002 0.756408 0.5
356 1 0.875018 0.803673 0.5
357 1 0.900022 0.756413 0.5
358 1 0.925019 0.803676 0.5
359 1 0.950014 0.756407 0.5
360 1 0.975011 0.803665 0.5
381 3 0.500017 0.850904 0.5
382 3 0.525009 0.898166 0.5
383 3 0.550006 0.850909 0.5
384 3 0.575 0.898182 0.5
385 3 0.599994 0.850909 0.5
386 3 0.624991 0.898166 0.5
387 3 0.649983 0.850904 0.5
388 3 0.674954 0.898187 0.5
389 3 0.699968 0.850906 0.5
390 3 0.724963 0.898151 0.5
391 3 0.749978 0.850899 0.5
392 3 0.774977 0.898147 0.5
393 1 0.799993 0.850905 0.5
394 1 0.82499 0.898154 0.5
395 1 0.850007 0.850917 0.5
396 1 0.875006 0.898171 0.5
397 1 0.900018 0.85093 0.5
398 1 0.925014 0.898191 0.5
399 1 0.950015 0.850932 0.5
400 1 0.975012 0.898182 0.5
421 3 0.617995 0.999898 0.5
412 3 0.549989 0.945505 0.5
413 3 0.600011 0.945505 0.5
414 3 0.649907 0.945687 0.5
415 3 0.699951 0.945608 0.5
416 3 0.749965 0.945588 0.5
201 1 0.999998 0.472866 0.5
1 2 0.999998 0.000103351 0.5
341 1 0.500009 0.756376 0.5
41 2 0.999996 0.0948159 0.5
181 1 0.500007 0.378351 0.5
141 1 0.500006 0.283835 0.5
81 1 0.999997 0.18934 0.5
121 1 0.999998 0.283848 0.5
161 1 0.999999 0.378355 0.5
241 1 0.999995 0.567377 0.5
ITEM: TIMESTEP
78
ITEM: NUMBER OF ATOMS
421
ITEM: BOX BOUNDS pp ss pp
0.0000000000000000e+00 2.2653923264628304e+01
2.1879574711865565e-01 2.0367505793219205e+01
-2.8317404080785380e-01 2.8317404080785380e-01
ITEM: ATOMS id type xs ys zs
221 1 0.499982 0.475994 0.5
2 2 0.0249978 0.0478741 0.5
3 2 0.0499993 0.00010226 0.5
4 2 0.075 0.0478734 0.5
5 2 0.100001 0.00010226 0.5
6 2 0.125002 0.0478741 0.5
7 2 0.150002 0.000104041 0.5
8 2 0.175004 0.0478759 0.5
9 2 0.200003 0.000107243 0.5
10 2 0.225005 0.0478783 0.5
11 2 0.250004 0.000111271 0.5
12 2 0.275005 0.0478808 0.5
13 2 0.300004 0.000115486 0.5
14 2 0.325005 0.047883 0.5
15 2 0.350004 0.000119355 0.5
16 2 0.375004 0.0478847 0.5
17 2 0.400004 0.00012254 0.5
18 2 0.425003 0.0478861 0.5
19 2 0.450003 0.000124891 0.5
20 2 0.475002 0.0478871 0.5
406 1 0.249981 0.951868 0.5
42 1 0.0249962 0.143017 0.5
43 2 0.0499985 0.0954491 0.5
44 1 0.0749979 0.143017 0.5
45 2 0.100002 0.0954491 0.5
46 1 0.125 0.143017 0.5
47 2 0.150004 0.0954491 0.5
48 1 0.175001 0.143018 0.5
49 2 0.200006 0.0954492 0.5
50 1 0.225002 0.143018 0.5
51 2 0.250007 0.0954495 0.5
52 1 0.275002 0.143019 0.5
53 2 0.300006 0.0954501 0.5
54 1 0.325001 0.14302 0.5
55 2 0.350005 0.0954507 0.5
56 1 0.375001 0.14302 0.5
57 2 0.400004 0.0954512 0.5
58 1 0.425 0.14302 0.5
59 2 0.450003 0.0954516 0.5
60 1 0.474999 0.143021 0.5
405 1 0.199978 0.951868 0.5
82 1 0.0249933 0.238155 0.5
83 1 0.0499953 0.190586 0.5
84 1 0.0749936 0.238155 0.5
85 1 0.0999962 0.190586 0.5
86 1 0.124994 0.238155 0.5
87 1 0.149997 0.190586 0.5
88 1 0.174994 0.238156 0.5
89 1 0.199997 0.190587 0.5
90 1 0.224994 0.238156 0.5
91 1 0.249998 0.190588 0.5
92 1 0.274994 0.238157 0.5
93 1 0.299998 0.190588 0.5
94 1 0.324994 0.238157 0.5
95 1 0.349997 0.190589 0.5
96 1 0.374994 0.238157 0.5
97 1 0.399997 0.190589 0.5
98 1 0.424994 0.238158 0.5
99 1 0.449997 0.190589 0.5
100 1 0.474994 0.238158 0.5
404 1 0.149974 0.951869 0.5
122 1 0.0249897 0.333294 0.5
123 1 0.0499915 0.285725 0.5
124 1 0.0749893 0.333294 0.5
125 1 0.0999914 0.285725 0.5
126 1 0.124989 0.333294 0.5
127 1 0.149991 0.285725 0.5
128 1 0.174989 0.333294 0.5
129 1 0.199991 0.285725 0.5
130 1 0.224988 0.333294 0.5
131 1 0.249991 0.285725 0.5
132 1 0.274988 0.333294 0.5
133 1 0.299991 0.285726 0.5
134 1 0.324988 0.333294 0.5
135 1 0.349991 0.285726 0.5
136 1 0.374988 0.333294 0.5
137 1 0.399991 0.285726 0.5
138 1 0.424988 0.333294 0.5
139 1 0.449991 0.285726 0.5
140 1 0.474989 0.333294 0.5
403 1 0.0999713 0.95187 0.5
162 1 0.0249857 0.428433 0.5
163 1 0.0499874 0.380863 0.5
164 1 0.0749849 0.428433 0.5
165 1 0.0999868 0.380863 0.5
166 1 0.124984 0.428433 0.5
167 1 0.149986 0.380863 0.5
168 1 0.174984 0.428432 0.5
169 1 0.199986 0.380863 0.5
170 1 0.224983 0.428432 0.5
171 1 0.249986 0.380863 0.5
172 1 0.274983 0.428431 0.5
173 1 0.299985 0.380863 0.5
174 1 0.324983 0.428431 0.5
175 1 0.349985 0.380862 0.5
176 1 0.374983 0.42843 0.5
177 1 0.399986 0.380862 0.5
178 1 0.424983 0.428429 0.5
179 1 0.449986 0.380861 0.5
180 1 0.474984 0.428428 0.5
410 3 0.45001 0.951875 0.5
202 1 0.0249812 0.523571 0.5
203 1 0.0499831 0.476002 0.5
204 1 0.0749806 0.523571 0.5
205 1 0.0999825 0.476002 0.5
206 1 0.12498 0.523571 0.5
207 1 0.149982 0.476002 0.5
208 1 0.17498 0.52357 0.5
209 1 0.199982 0.476001 0.5
210 1 0.22498 0.523569 0.5
211 1 0.249981 0.476 0.5
212 1 0.274979 0.523568 0.5
213 1 0.299981 0.475999 0.5
214 1 0.324979 0.523567 0.5
215 1 0.349981 0.475998 0.5
216 1 0.374979 0.523565 0.5
217 1 0.399981 0.475997 0.5
218 1 0.424979 0.523563 0.5
219 1 0.449981 0.475995 0.5
220 1 0.474979 0.523561 0.5
402 1 0.0499676 0.951871 0.5
242 1 0.0249763 0.618708 0.5
243 1 0.0499786 0.57114 0.5
244 1 0.0749764 0.618708 0.5
245 1 0.0999784 0.571139 0.5
246 1 0.124977 0.618707 0.5
247 1 0.149978 0.571139 0.5
248 1 0.174977 0.618706 0.5
249 1 0.199978 0.571138 0.5
250 1 0.224978 0.618705 0.5
251 1 0.249978 0.571137 0.5
252 1 0.274978 0.618704 0.5
253 1 0.299978 0.571135 0.5
254 1 0.324977 0.618702 0.5
255 1 0.349978 0.571133 0.5
256 1 0.374976 0.6187 0.5
257 1 0.399977 0.571131 0.5
258 1 0.424975 0.618697 0.5
259 1 0.449977 0.571128 0.5
260 1 0.474975 0.618693 0.5
409 1 0.399998 0.951872 0.5
282 1 0.0249714 0.713844 0.5
283 1 0.0499741 0.666276 0.5
284 1 0.0749727 0.713842 0.5
285 1 0.0999749 0.666275 0.5
286 1 0.124974 0.713841 0.5
287 1 0.149976 0.666274 0.5
288 1 0.174976 0.71384 0.5
289 1 0.199977 0.666273 0.5
290 1 0.224977 0.713839 0.5
291 1 0.249977 0.666272 0.5
292 1 0.274978 0.713839 0.5
293 1 0.299977 0.666271 0.5
294 1 0.324978 0.713838 0.5
295 1 0.349977 0.666269 0.5
296 1 0.374977 0.713836 0.5
297 1 0.399975 0.666266 0.5
298 1 0.424975 0.713832 0.5
299 1 0.449973 0.666261 0.5
300 1 0.474972 0.713825 0.5
321 1 -3.17647e-05 0.761411 0.5
322 1 0.0249673 0.808976 0.5
323 1 0.0499701 0.761409 0.5
324 1 0.07497 0.808974 0.5
325 1 0.0999722 0.761408 0.5
326 1 0.124973 0.808972 0.5
327 1 0.149974 0.761406 0.5
328 1 0.174975 0.808971 0.5
329 1 0.199976 0.761406 0.5
330 1 0.224978 0.808971 0.5
331 1 0.249978 0.761405 0.5
332 1 0.27498 0.808971 0.5
333 1 0.29998 0.761405 0.5
334 1 0.324982 0.808972 0.5
335 1 0.34998 0.761405 0.5
336 1 0.374983 0.808972 0.5
337 1 0.399979 0.761403 0.5
338 1 0.424983 0.808971 0.5
339 1 0.449976 0.761399 0.5
340 1 0.474979 0.808966 0.5
408 1 0.34999 0.95187 0.5
362 1 0.0249653 0.904106 0.5
363 1 0.0499676 0.856539 0.5
364 1 0.0749691 0.904104 0.5
365 1 0.0999708 0.856537 0.5
366 1 0.124972 0.904103 0.5
367 1 0.149974 0.856536 0.5
368 1 0.174976 0.904102 0.5
369 1 0.199977 0.856535 0.5
370 1 0.224979 0.904102 0.5
371 1 0.24998 0.856535 0.5
372 1 0.274982 0.904102 0.5
373 1 0.299983 0.856536 0.5
374 1 0.324987 0.904103 0.5
375 1 0.349986 0.856538 0.5
376 1 0.374991 0.904105 0.5
377 1 0.399989 0.856539 0.5
378 1 0.424997 0.904108 0.5
379 3 0.44999 0.85654 0.5
380 3 0.475004 0.904111 0.5
407 1 0.299985 0.951869 0.5
261 1 0.499977 0.571126 0.5
401 1 -3.66887e-05 0.951873 0.5
361 1 -3.58606e-05 0.856541 0.5
301 1 0.499972 0.666256 0.5
281 1 -2.62962e-05 0.666277 0.5
241 1 -2.08842e-05 0.57114 0.5
21 2 0.500002 0.000126399 0.5
22 2 0.525001 0.0478877 0.5
23 2 0.550001 0.000127126 0.5
24 2 0.575 0.0478879 0.5
25 2 0.599999 0.000127126 0.5
26 2 0.624999 0.0478877 0.5
27 2 0.649998 0.000126399 0.5
28 2 0.674998 0.0478871 0.5
29 2 0.699997 0.000124891 0.5
30 2 0.724997 0.0478861 0.5
31 2 0.749996 0.00012254 0.5
32 2 0.774996 0.0478847 0.5
33 2 0.799996 0.000119355 0.5
34 2 0.824995 0.047883 0.5
35 2 0.849996 0.000115486 0.5
36 2 0.874995 0.0478808 0.5
37 2 0.899996 0.000111271 0.5
38 2 0.924995 0.0478783 0.5
39 2 0.949997 0.000107243 0.5
40 2 0.974996 0.0478759 0.5
61 2 0.500002 0.0954518 0.5
62 1 0.524999 0.143021 0.5
63 2 0.550001 0.0954519 0.5
64 1 0.574998 0.143021 0.5
65 2 0.599999 0.0954519 0.5
66 1 0.624997 0.143021 0.5
67 2 0.649998 0.0954518 0.5
68 1 0.674996 0.143021 0.5
69 2 0.699997 0.0954516 0.5
70 1 0.724995 0.14302 0.5
71 2 0.749996 0.0954512 0.5
72 1 0.774995 0.14302 0.5
73 2 0.799995 0.0954507 0.5
74 1 0.824994 0.143019 0.5
75 2 0.849994 0.0954501 0.5
76 1 0.874994 0.143019 0.5
77 2 0.899993 0.0954495 0.5
78 1 0.924994 0.143018 0.5
79 2 0.949994 0.0954492 0.5
80 1 0.974995 0.143018 0.5
101 1 0.499996 0.190589 0.5
102 1 0.524994 0.238158 0.5
103 1 0.549996 0.190589 0.5
104 1 0.574994 0.238158 0.5
105 1 0.599995 0.190589 0.5
106 1 0.624993 0.238158 0.5
107 1 0.649995 0.190589 0.5
108 1 0.674993 0.238158 0.5
109 1 0.699995 0.190589 0.5
110 1 0.724993 0.238158 0.5
111 1 0.749994 0.190589 0.5
112 1 0.774993 0.238157 0.5
113 1 0.799994 0.190589 0.5
114 1 0.824993 0.238157 0.5
115 1 0.849994 0.190588 0.5
116 1 0.874993 0.238157 0.5
117 1 0.899994 0.190587 0.5
118 1 0.924993 0.238156 0.5
119 1 0.949994 0.190587 0.5
120 1 0.974993 0.238156 0.5
420 1 0.949958 0.951876 0.5
142 1 0.524989 0.333294 0.5
143 1 0.549991 0.285726 0.5
144 1 0.57499 0.333294 0.5
145 1 0.599992 0.285726 0.5
146 1 0.62499 0.333294 0.5
147 1 0.649992 0.285726 0.5
148 1 0.674991 0.333294 0.5
149 1 0.699992 0.285726 0.5
150 1 0.724991 0.333294 0.5
151 1 0.749992 0.285726 0.5
152 1 0.774991 0.333294 0.5
153 1 0.799992 0.285726 0.5
154 1 0.824991 0.333294 0.5
155 1 0.849992 0.285725 0.5
156 1 0.874991 0.333294 0.5
157 1 0.899992 0.285725 0.5
158 1 0.924991 0.333294 0.5
159 1 0.949992 0.285725 0.5
160 1 0.97499 0.333294 0.5
419 1 0.899951 0.951878 0.5
182 1 0.524985 0.428428 0.5
183 1 0.549987 0.380861 0.5
184 1 0.574986 0.428428 0.5
185 1 0.599988 0.380861 0.5
186 1 0.624987 0.428428 0.5
187 1 0.649989 0.380861 0.5
188 1 0.674988 0.428428 0.5
189 1 0.699989 0.380861 0.5
190 1 0.724988 0.428429 0.5
191 1 0.74999 0.380862 0.5
192 1 0.774989 0.42843 0.5
193 1 0.79999 0.380862 0.5
194 1 0.824989 0.428431 0.5
195 1 0.84999 0.380863 0.5
196 1 0.874988 0.428431 0.5
197 1 0.899989 0.380863 0.5
198 1 0.924987 0.428432 0.5
199 1 0.949989 0.380863 0.5
200 1 0.974986 0.428433 0.5
418 1 0.849941 0.951881 0.5
222 1 0.52498 0.52356 0.5
223 1 0.549983 0.475994 0.5
224 1 0.574982 0.52356 0.5
225 1 0.599985 0.475994 0.5
226 1 0.624983 0.52356 0.5
227 1 0.649986 0.475994 0.5
228 1 0.674985 0.523561 0.5
229 1 0.699987 0.475995 0.5
230 1 0.724986 0.523562 0.5
231 1 0.749987 0.475997 0.5
232 1 0.774986 0.523564 0.5
233 1 0.799987 0.475998 0.5
234 1 0.824985 0.523567 0.5
235 1 0.849987 0.475999 0.5
236 1 0.874984 0.523569 0.5
237 1 0.899986 0.476001 0.5
238 1 0.924983 0.52357 0.5
239 1 0.949985 0.476002 0.5
240 1 0.974982 0.523571 0.5
161 1 0.999988 0.380863 0.5
262 1 0.524975 0.61869 0.5
263 1 0.549979 0.571125 0.5
264 1 0.574977 0.618689 0.5
265 1 0.59998 0.571125 0.5
266 1 0.624979 0.618689 0.5
267 1 0.649982 0.571125 0.5
268 1 0.674981 0.618691 0.5
269 1 0.699984 0.571127 0.5
270 1 0.724983 0.618694 0.5
271 1 0.749984 0.57113 0.5
272 1 0.774983 0.618698 0.5
273 1 0.799984 0.571133 0.5
274 1 0.824981 0.618703 0.5
275 1 0.849983 0.571136 0.5
276 1 0.874979 0.618706 0.5
277 1 0.899981 0.571138 0.5
278 1 0.924978 0.618708 0.5
279 1 0.94998 0.57114 0.5
280 1 0.974977 0.618709 0.5
411 3 0.500031 0.95188 0.5
302 1 0.52497 0.713818 0.5
303 1 0.549973 0.666253 0.5
304 1 0.574972 0.713813 0.5
305 1 0.599976 0.666251 0.5
306 1 0.624975 0.713812 0.5
307 1 0.649979 0.666252 0.5
308 1 0.674979 0.713816 0.5
309 1 0.699981 0.666256 0.5
310 1 0.72498 0.713823 0.5
311 1 0.749981 0.666262 0.5
312 1 0.774978 0.713832 0.5
313 1 0.79998 0.666268 0.5
314 1 0.824974 0.71384 0.5
315 1 0.849977 0.666273 0.5
316 1 0.874971 0.713844 0.5
317 1 0.899975 0.666276 0.5
318 1 0.92497 0.713845 0.5
319 1 0.949974 0.666277 0.5
320 1 0.974971 0.713845 0.5
417 1 0.799927 0.951884 0.5
342 1 0.524967 0.808946 0.5
343 1 0.549968 0.761377 0.5
344 1 0.574966 0.808931 0.5
345 1 0.599971 0.761371 0.5
346 1 0.624971 0.808926 0.5
347 1 0.649976 0.761373 0.5
348 1 0.674976 0.808934 0.5
349 1 0.699978 0.761381 0.5
350 1 0.724975 0.808952 0.5
351 1 0.749976 0.761394 0.5
352 1 0.774964 0.808974 0.5
353 1 0.79997 0.761407 0.5
354 1 0.82496 0.80898 0.5
355 1 0.849967 0.761412 0.5
356 1 0.87496 0.808981 0.5
357 1 0.899966 0.761413 0.5
358 1 0.924962 0.80898 0.5
359 1 0.949967 0.761412 0.5
360 1 0.974965 0.808978 0.5
381 3 0.499986 0.856536 0.5
382 3 0.525006 0.904115 0.5
383 3 0.549964 0.856496 0.5
384 3 0.574959 0.904028 0.5
385 3 0.599967 0.856478 0.5
386 3 0.624968 0.904024 0.5
387 3 0.649972 0.85648 0.5
388 3 0.674978 0.904032 0.5
389 3 0.699976 0.856501 0.5
390 3 0.724931 0.904122 0.5
391 3 0.749954 0.856543 0.5
392 3 0.774934 0.90412 0.5
393 1 0.79995 0.856549 0.5
394 1 0.824942 0.904117 0.5
395 1 0.849953 0.856548 0.5
396 1 0.874949 0.904114 0.5
397 1 0.899956 0.856546 0.5
398 1 0.924956 0.904111 0.5
399 1 0.94996 0.856544 0.5
400 1 0.974961 0.904109 0.5
421 3 0.624964 0.999392 0.5
412 3 0.550072 0.951911 0.5
413 3 0.59995 0.951635 0.5
414 3 0.649983 0.951637 0.5
415 3 0.699862 0.951916 0.5
416 3 0.749905 0.951888 0.5
201 1 0.999984 0.476002 0.5
1 2 0.999998 0.000104041 0.5
341 1 0.49997 0.761387 0.5
41 2 0.999996 0.0954491 0.5
181 1 0.499987 0.380861 0.5
141 1 0.499991 0.285726 0.5
81 1 0.999995 0.190586 0.5
121 1 0.999992 0.285725 0.5
ITEM: TIMESTEP
107
ITEM: NUMBER OF ATOMS
421
ITEM: BOX BOUNDS pp ss pp
0.0000000000000000e+00 2.2653923264628304e+01
2.1879574711865565e-01 2.0357306415122459e+01
-2.8317404080785380e-01 2.8317404080785380e-01
ITEM: ATOMS id type xs ys zs
221 1 0.499982 0.476221 0.5
2 2 0.0249978 0.0478983 0.5
3 2 0.0499993 0.000102312 0.5
4 2 0.075 0.0478977 0.5
5 2 0.100001 0.000102312 0.5
6 2 0.125002 0.0478983 0.5
7 2 0.150002 0.000104094 0.5
8 2 0.175004 0.0479001 0.5
9 2 0.200003 0.000107298 0.5
10 2 0.225005 0.0479026 0.5
11 2 0.250004 0.000111328 0.5
12 2 0.275005 0.0479051 0.5
13 2 0.300004 0.000115544 0.5
14 2 0.325005 0.0479073 0.5
15 2 0.350004 0.000119416 0.5
16 2 0.375004 0.047909 0.5
17 2 0.400004 0.000122602 0.5
18 2 0.425003 0.0479103 0.5
19 2 0.450003 0.000124954 0.5
20 2 0.475002 0.0479113 0.5
406 1 0.249986 0.952332 0.5
42 1 0.0249965 0.143088 0.5
43 2 0.0499985 0.0954974 0.5
44 1 0.0749982 0.143088 0.5
45 2 0.100002 0.0954974 0.5
46 1 0.125 0.143088 0.5
47 2 0.150004 0.0954974 0.5
48 1 0.175001 0.143088 0.5
49 2 0.200006 0.0954975 0.5
50 1 0.225002 0.143089 0.5
51 2 0.250007 0.0954978 0.5
52 1 0.275002 0.14309 0.5
53 2 0.300006 0.0954984 0.5
54 1 0.325001 0.14309 0.5
55 2 0.350005 0.095499 0.5
56 1 0.375001 0.143091 0.5
57 2 0.400004 0.0954995 0.5
58 1 0.425 0.143091 0.5
59 2 0.450003 0.0954999 0.5
60 1 0.474999 0.143091 0.5
405 1 0.199982 0.952331 0.5
82 1 0.0249943 0.238271 0.5
83 1 0.0499959 0.190679 0.5
84 1 0.0749944 0.238271 0.5
85 1 0.0999967 0.190679 0.5
86 1 0.124995 0.238271 0.5
87 1 0.149997 0.190679 0.5
88 1 0.174995 0.238271 0.5
89 1 0.199998 0.19068 0.5
90 1 0.224994 0.238272 0.5
91 1 0.249998 0.190681 0.5
92 1 0.274994 0.238272 0.5
93 1 0.299998 0.190681 0.5
94 1 0.324994 0.238272 0.5
95 1 0.349997 0.190682 0.5
96 1 0.374994 0.238273 0.5
97 1 0.399997 0.190682 0.5
98 1 0.424994 0.238273 0.5
99 1 0.449997 0.190682 0.5
100 1 0.474994 0.238273 0.5
404 1 0.149978 0.952332 0.5
122 1 0.0249914 0.333454 0.5
123 1 0.0499928 0.285862 0.5
124 1 0.0749908 0.333454 0.5
125 1 0.0999924 0.285862 0.5
126 1 0.12499 0.333454 0.5
127 1 0.149992 0.285863 0.5
128 1 0.17499 0.333455 0.5
129 1 0.199992 0.285863 0.5
130 1 0.224989 0.333455 0.5
131 1 0.249991 0.285863 0.5
132 1 0.274989 0.333455 0.5
133 1 0.299991 0.285863 0.5
134 1 0.324988 0.333454 0.5
135 1 0.349991 0.285863 0.5
136 1 0.374988 0.333454 0.5
137 1 0.399991 0.285863 0.5
138 1 0.424988 0.333453 0.5
139 1 0.449991 0.285863 0.5
140 1 0.474988 0.333453 0.5
403 1 0.0999741 0.952332 0.5
162 1 0.0249881 0.428638 0.5
163 1 0.0499894 0.381046 0.5
164 1 0.0749872 0.428638 0.5
165 1 0.0999886 0.381046 0.5
166 1 0.124986 0.428638 0.5
167 1 0.149988 0.381046 0.5
168 1 0.174986 0.428638 0.5
169 1 0.199987 0.381046 0.5
170 1 0.224985 0.428638 0.5
171 1 0.249986 0.381046 0.5
172 1 0.274984 0.428637 0.5
173 1 0.299986 0.381046 0.5
174 1 0.324984 0.428636 0.5
175 1 0.349986 0.381045 0.5
176 1 0.374983 0.428635 0.5
177 1 0.399986 0.381044 0.5
178 1 0.424983 0.428634 0.5
179 1 0.449986 0.381043 0.5
180 1 0.474984 0.428632 0.5
410 3 0.450019 0.952336 0.5
202 1 0.0249844 0.523821 0.5
203 1 0.0499859 0.47623 0.5
204 1 0.0749837 0.523822 0.5
205 1 0.099985 0.47623 0.5
206 1 0.124983 0.523822 0.5
207 1 0.149984 0.47623 0.5
208 1 0.174982 0.523822 0.5
209 1 0.199984 0.47623 0.5
210 1 0.224982 0.523821 0.5
211 1 0.249983 0.476229 0.5
212 1 0.274981 0.52382 0.5
213 1 0.299982 0.476228 0.5
214 1 0.32498 0.523818 0.5
215 1 0.349981 0.476226 0.5
216 1 0.37498 0.523816 0.5
217 1 0.399981 0.476224 0.5
218 1 0.424979 0.523813 0.5
219 1 0.449981 0.476223 0.5
220 1 0.47498 0.523811 0.5
402 1 0.0499701 0.952332 0.5
242 1 0.0249803 0.619004 0.5
243 1 0.0499822 0.571413 0.5
244 1 0.0749802 0.619005 0.5
245 1 0.0999818 0.571413 0.5
246 1 0.12498 0.619005 0.5
247 1 0.149981 0.571413 0.5
248 1 0.17498 0.619004 0.5
249 1 0.199981 0.571413 0.5
250 1 0.22498 0.619004 0.5
251 1 0.249981 0.571412 0.5
252 1 0.27498 0.619002 0.5
253 1 0.29998 0.57141 0.5
254 1 0.324979 0.619001 0.5
255 1 0.349979 0.571408 0.5
256 1 0.374978 0.618998 0.5
257 1 0.399978 0.571405 0.5
258 1 0.424977 0.618993 0.5
259 1 0.449978 0.571401 0.5
260 1 0.474976 0.618989 0.5
409 1 0.400006 0.952334 0.5
282 1 0.0249757 0.714186 0.5
283 1 0.0499782 0.666595 0.5
284 1 0.0749768 0.714185 0.5
285 1 0.0999788 0.666595 0.5
286 1 0.124978 0.714185 0.5
287 1 0.14998 0.666595 0.5
288 1 0.17498 0.714185 0.5
289 1 0.19998 0.666595 0.5
290 1 0.224981 0.714185 0.5
291 1 0.249981 0.666594 0.5
292 1 0.274982 0.714184 0.5
293 1 0.29998 0.666593 0.5
294 1 0.324982 0.714183 0.5
295 1 0.34998 0.666591 0.5
296 1 0.374981 0.714181 0.5
297 1 0.399978 0.666587 0.5
298 1 0.424978 0.714176 0.5
299 1 0.449976 0.666581 0.5
300 1 0.474975 0.714167 0.5
301 1 0.499975 0.666574 0.5
322 1 0.0249714 0.809364 0.5
323 1 0.0499744 0.761775 0.5
324 1 0.074974 0.809364 0.5
325 1 0.0999763 0.761775 0.5
326 1 0.124977 0.809363 0.5
327 1 0.149978 0.761775 0.5
328 1 0.174979 0.809363 0.5
329 1 0.19998 0.761774 0.5
330 1 0.224982 0.809363 0.5
331 1 0.249982 0.761774 0.5
332 1 0.274985 0.809364 0.5
333 1 0.299984 0.761774 0.5
334 1 0.324987 0.809364 0.5
335 1 0.349984 0.761773 0.5
336 1 0.374988 0.809363 0.5
337 1 0.399983 0.761771 0.5
338 1 0.424988 0.809361 0.5
339 1 0.44998 0.761765 0.5
340 1 0.474984 0.809355 0.5
408 1 0.349997 0.952333 0.5
362 1 0.0249685 0.904542 0.5
363 1 0.0499714 0.856952 0.5
364 1 0.0749724 0.904542 0.5
365 1 0.0999747 0.856952 0.5
366 1 0.124976 0.904541 0.5
367 1 0.149978 0.856951 0.5
368 1 0.17498 0.904541 0.5
369 1 0.199981 0.856951 0.5
370 1 0.224984 0.904541 0.5
371 1 0.249985 0.856952 0.5
372 1 0.274988 0.904542 0.5
373 1 0.299988 0.856952 0.5
374 1 0.324993 0.904543 0.5
375 1 0.349992 0.856953 0.5
376 1 0.374998 0.904544 0.5
377 1 0.399995 0.856954 0.5
378 1 0.425005 0.904546 0.5
379 3 0.449997 0.856953 0.5
380 3 0.475011 0.904548 0.5
407 1 0.299991 0.952332 0.5
261 1 0.499978 0.571398 0.5
101 1 0.499996 0.190682 0.5
381 3 0.499993 0.856947 0.5
341 1 0.499974 0.761752 0.5
141 1 0.499991 0.285863 0.5
181 1 0.499986 0.381042 0.5
21 2 0.500002 0.000126463 0.5
22 2 0.525001 0.0479119 0.5