ITEM: TIMESTEP
0
ITEM: NUMBER OF ATOMS
421
ITEM: BOX BOUNDS pp ss pp
0.0000000000000000e+00 2.2653923264628304e+01
2.1879574711865565e-01 2.0489328337648541e+01
-2.8317404080785380e-01 2.8317404080785380e-01
ITEM: ATOMS id type xs ys zs
221 1 0.499997 0.47316 0.5
2 2 0.0249978 0.0475864 0.5
3 2 0.0499993 0.000101646 0.5
4 2 0.075 0.0475857 0.5
5 2 0.100001 0.000101646 0.5
6 2 0.125002 0.0475864 0.5
7 2 0.150002 0.000103416 0.5
8 2 0.175004 0.0475882 0.5
9 2 0.200003 0.000106599 0.5
10 2 0.225005 0.0475906 0.5
11 2 0.250004 0.000110603 0.5
12 2 0.275005 0.0475931 0.5
13 2 0.300004 0.000114792 0.5
14 2 0.325005 0.0475952 0.5
15 2 0.350004 0.000118638 0.5
16 2 0.375004 0.047597 0.5
17 2 0.400004 0.000121803 0.5
18 2 0.425003 0.0475983 0.5
19 2 0.450003 0.00012414 0.5
20 2 0.475002 0.0475993 0.5
406 1 0.250001 0.946224 0.5
42 1 0.0249972 0.142165 0.5
43 2 0.0499985 0.0948755 0.5
44 1 0.075 0.142166 0.5
45 2 0.100002 0.0948755 0.5
46 1 0.125003 0.142165 0.5
47 2 0.150004 0.0948754 0.5
48 1 0.175005 0.142164 0.5
49 2 0.200006 0.0948755 0.5
50 1 0.225007 0.142162 0.5
51 2 0.250007 0.0948759 0.5
52 1 0.275007 0.142161 0.5
53 2 0.300006 0.0948765 0.5
54 1 0.325007 0.142161 0.5
55 2 0.350005 0.0948771 0.5
56 1 0.375006 0.142161 0.5
57 2 0.400004 0.0948775 0.5
58 1 0.425004 0.142161 0.5
59 2 0.450003 0.0948779 0.5
60 1 0.475003 0.14216 0.5
405 1 0.199986 0.946238 0.5
82 1 0.0249986 0.236746 0.5
83 1 0.049999 0.189461 0.5
84 1 0.075 0.236747 0.5
85 1 0.100001 0.189461 0.5
86 1 0.125001 0.236746 0.5
87 1 0.150003 0.189459 0.5
88 1 0.175003 0.236744 0.5
89 1 0.200005 0.189456 0.5
90 1 0.225006 0.236741 0.5
91 1 0.250007 0.189453 0.5
92 1 0.275008 0.236738 0.5
93 1 0.300008 0.189451 0.5
94 1 0.325009 0.236736 0.5
95 1 0.350007 0.189451 0.5
96 1 0.375008 0.236735 0.5
97 1 0.400006 0.189451 0.5
98 1 0.425007 0.236735 0.5
99 1 0.450004 0.189451 0.5
100 1 0.475005 0.236735 0.5
404 1 0.14998 0.946212 0.5
122 1 0.024999 0.33131 0.5
123 1 0.0499995 0.284027 0.5
124 1 0.075 0.331311 0.5
125 1 0.100001 0.284027 0.5
126 1 0.125001 0.33131 0.5
127 1 0.150002 0.284026 0.5
128 1 0.175002 0.331308 0.5
129 1 0.200004 0.284023 0.5
130 1 0.225005 0.331306 0.5
131 1 0.250006 0.28402 0.5
132 1 0.275007 0.331303 0.5
133 1 0.300009 0.284017 0.5
134 1 0.325011 0.331299 0.5
135 1 0.35001 0.284014 0.5
136 1 0.375012 0.331297 0.5
137 1 0.40001 0.284014 0.5
138 1 0.425013 0.331297 0.5
139 1 0.450008 0.284013 0.5
140 1 0.475011 0.331298 0.5
403 1 0.0999905 0.946181 0.5
162 1 0.024999 0.425881 0.5
163 1 0.0499993 0.378593 0.5
164 1 0.075 0.425882 0.5
165 1 0.100001 0.378593 0.5
166 1 0.125001 0.425881 0.5
167 1 0.150001 0.378592 0.5
168 1 0.175002 0.42588 0.5
169 1 0.200003 0.37859 0.5
170 1 0.225005 0.425878 0.5
171 1 0.250006 0.378588 0.5
172 1 0.275008 0.425875 0.5
173 1 0.300009 0.378585 0.5
174 1 0.325012 0.425873 0.5
175 1 0.350014 0.378583 0.5
176 1 0.375013 0.425871 0.5
177 1 0.400015 0.378582 0.5
178 1 0.425009 0.425875 0.5
179 1 0.450013 0.378584 0.5
180 1 0.475002 0.425878 0.5
410 3 0.450049 0.946202 0.5
202 1 0.0249985 0.520446 0.5
203 1 0.0499994 0.473164 0.5
204 1 0.075 0.520447 0.5
205 1 0.100001 0.473164 0.5
206 1 0.125002 0.520446 0.5
207 1 0.150002 0.473163 0.5
208 1 0.175004 0.520446 0.5
209 1 0.200004 0.473162 0.5
210 1 0.225005 0.520444 0.5
211 1 0.250007 0.47316 0.5
212 1 0.275002 0.520444 0.5
213 1 0.300008 0.473159 0.5
214 1 0.324995 0.520447 0.5
215 1 0.350004 0.473159 0.5
216 1 0.374989 0.52045 0.5
217 1 0.399999 0.473163 0.5
218 1 0.424989 0.520445 0.5
219 1 0.449996 0.473163 0.5
220 1 0.474993 0.52044 0.5
402 1 0.0500095 0.946181 0.5
242 1 0.0249956 0.615014 0.5
243 1 0.0499984 0.567733 0.5
244 1 0.075 0.615014 0.5
245 1 0.100002 0.567733 0.5
246 1 0.125004 0.615014 0.5
247 1 0.150005 0.567733 0.5
248 1 0.175003 0.615016 0.5
249 1 0.200003 0.567733 0.5
250 1 0.224995 0.615022 0.5
251 1 0.249997 0.567736 0.5
252 1 0.274984 0.615028 0.5
253 1 0.299988 0.567741 0.5
254 1 0.324976 0.615029 0.5
255 1 0.349981 0.567742 0.5
256 1 0.374979 0.615023 0.5
257 1 0.399983 0.567736 0.5
258 1 0.424985 0.615014 0.5
259 1 0.449988 0.567729 0.5
260 1 0.474991 0.615008 0.5
409 1 0.400035 0.946182 0.5
282 1 0.024998 0.709573 0.5
283 1 0.0499969 0.662294 0.5
284 1 0.075 0.709568 0.5
285 1 0.100003 0.662294 0.5
286 1 0.125002 0.709573 0.5
287 1 0.150003 0.662298 0.5
288 1 0.174995 0.709585 0.5
289 1 0.199995 0.662308 0.5
290 1 0.224983 0.709598 0.5
291 1 0.249982 0.662316 0.5
292 1 0.274976 0.7096 0.5
293 1 0.299974 0.662317 0.5
294 1 0.324978 0.709595 0.5
295 1 0.349977 0.662312 0.5
296 1 0.374984 0.709586 0.5
297 1 0.399983 0.662302 0.5
298 1 0.42499 0.70958 0.5
299 1 0.449989 0.662296 0.5
300 1 0.474995 0.709575 0.5
321 1 3.64377e-06 0.756866 0.5
322 1 0.025002 0.804148 0.5
323 1 0.0499996 0.756851 0.5
324 1 0.075 0.804137 0.5
325 1 0.1 0.756851 0.5
326 1 0.124998 0.804148 0.5
327 1 0.149996 0.756866 0.5
328 1 0.174989 0.804169 0.5
329 1 0.199986 0.756882 0.5
330 1 0.224981 0.804181 0.5
331 1 0.249978 0.756889 0.5
332 1 0.274982 0.804178 0.5
333 1 0.29998 0.756883 0.5
334 1 0.32499 0.804166 0.5
335 1 0.349986 0.756875 0.5
336 1 0.375003 0.804159 0.5
337 1 0.399995 0.756869 0.5
338 1 0.425016 0.804156 0.5
339 1 0.450003 0.756859 0.5
340 1 0.475017 0.804148 0.5
408 1 0.350024 0.946188 0.5
362 1 0.0250069 0.898714 0.5
363 1 0.0500014 0.851422 0.5
364 1 0.075 0.898697 0.5
365 1 0.0999986 0.851422 0.5
366 1 0.124993 0.898714 0.5
367 1 0.149994 0.851447 0.5
368 1 0.174988 0.898747 0.5
369 1 0.199985 0.851467 0.5
370 1 0.224986 0.898755 0.5
371 1 0.249982 0.851465 0.5
372 1 0.274994 0.898735 0.5
373 1 0.299993 0.851452 0.5
374 1 0.32501 0.898718 0.5
375 1 0.350007 0.85144 0.5
376 1 0.375023 0.898711 0.5
377 1 0.400022 0.851434 0.5
378 1 0.425037 0.898715 0.5
379 3 0.450032 0.851441 0.5
380 3 0.475046 0.898751 0.5
407 1 0.300014 0.946195 0.5
261 1 0.499993 0.567724 0.5
401 1 2.0232e-05 0.946212 0.5
361 1 6.38311e-06 0.851447 0.5
301 1 0.499992 0.66229 0.5
21 2 0.500002 0.00012564 0.5
22 2 0.525001 0.0475999 0.5
23 2 0.550001 0.000126362 0.5
24 2 0.575 0.0476001 0.5
25 2 0.599999 0.000126362 0.5
26 2 0.624999 0.0475999 0.5
27 2 0.649998 0.00012564 0.5
28 2 0.674998 0.0475993 0.5
29 2 0.699997 0.00012414 0.5
30 2 0.724997 0.0475983 0.5
31 2 0.749996 0.000121803 0.5
32 2 0.774996 0.047597 0.5
33 2 0.799996 0.000118638 0.5
34 2 0.824995 0.0475952 0.5
35 2 0.849996 0.000114792 0.5
36 2 0.874995 0.0475931 0.5
37 2 0.899996 0.000110603 0.5
38 2 0.924995 0.0475906 0.5
39 2 0.949997 0.000106599 0.5
40 2 0.974996 0.0475882 0.5
61 2 0.500002 0.0948782 0.5
62 1 0.525001 0.14216 0.5
63 2 0.550001 0.0948783 0.5
64 1 0.575 0.14216 0.5
65 2 0.599999 0.0948783 0.5
66 1 0.624999 0.14216 0.5
67 2 0.649998 0.0948782 0.5
68 1 0.674997 0.14216 0.5
69 2 0.699997 0.0948779 0.5
70 1 0.724996 0.142161 0.5
71 2 0.749996 0.0948775 0.5
72 1 0.774994 0.142161 0.5
73 2 0.799995 0.0948771 0.5
74 1 0.824993 0.142161 0.5
75 2 0.849994 0.0948765 0.5
76 1 0.874993 0.142161 0.5
77 2 0.899993 0.0948759 0.5
78 1 0.924993 0.142162 0.5
79 2 0.949994 0.0948755 0.5
80 1 0.974995 0.142164 0.5
101 1 0.500002 0.189451 0.5
102 1 0.525002 0.236734 0.5
103 1 0.550001 0.189451 0.5
104 1 0.575 0.236733 0.5
105 1 0.599999 0.189451 0.5
106 1 0.624998 0.236734 0.5
107 1 0.649998 0.189451 0.5
108 1 0.674995 0.236735 0.5
109 1 0.699996 0.189451 0.5
110 1 0.724993 0.236735 0.5
111 1 0.749994 0.189451 0.5
112 1 0.774992 0.236735 0.5
113 1 0.799993 0.189451 0.5
114 1 0.824991 0.236736 0.5
115 1 0.849992 0.189451 0.5
116 1 0.874992 0.236738 0.5
117 1 0.899993 0.189453 0.5
118 1 0.924994 0.236741 0.5
119 1 0.949995 0.189456 0.5
120 1 0.974997 0.236744 0.5
420 1 0.950014 0.946238 0.5
142 1 0.525006 0.331301 0.5
143 1 0.550003 0.284013 0.5
144 1 0.575 0.331304 0.5
145 1 0.599997 0.284013 0.5
146 1 0.624994 0.331301 0.5
147 1 0.649994 0.284013 0.5
148 1 0.674989 0.331298 0.5
149 1 0.699992 0.284013 0.5
150 1 0.724987 0.331297 0.5
151 1 0.74999 0.284014 0.5
152 1 0.774988 0.331297 0.5
153 1 0.79999 0.284014 0.5
154 1 0.824989 0.331299 0.5
155 1 0.849991 0.284017 0.5
156 1 0.874993 0.331303 0.5
157 1 0.899994 0.28402 0.5
158 1 0.924995 0.331306 0.5
159 1 0.949996 0.284023 0.5
160 1 0.974998 0.331308 0.5
419 1 0.899999 0.946224 0.5
182 1 0.525001 0.425879 0.5
183 1 0.550001 0.378589 0.5
184 1 0.575 0.425878 0.5
185 1 0.599999 0.378589 0.5
186 1 0.624999 0.425879 0.5
187 1 0.649993 0.378589 0.5
188 1 0.674998 0.425878 0.5
189 1 0.699987 0.378584 0.5
190 1 0.724991 0.425875 0.5
191 1 0.749985 0.378582 0.5
192 1 0.774987 0.425871 0.5
193 1 0.799986 0.378583 0.5
194 1 0.824988 0.425873 0.5
195 1 0.849991 0.378585 0.5
196 1 0.874992 0.425875 0.5
197 1 0.899994 0.378588 0.5
198 1 0.924995 0.425878 0.5
199 1 0.949997 0.37859 0.5
200 1 0.974998 0.42588 0.5
418 1 0.849986 0.946195 0.5
222 1 0.524995 0.520437 0.5
223 1 0.549999 0.47316 0.5
224 1 0.575 0.520435 0.5
225 1 0.600001 0.47316 0.5
226 1 0.625005 0.520437 0.5
227 1 0.650003 0.47316 0.5
228 1 0.675007 0.52044 0.5
229 1 0.700004 0.473163 0.5
230 1 0.725011 0.520445 0.5
231 1 0.750001 0.473163 0.5
232 1 0.775011 0.52045 0.5
233 1 0.799996 0.473159 0.5
234 1 0.825005 0.520447 0.5
235 1 0.849992 0.473159 0.5
236 1 0.874998 0.520444 0.5
237 1 0.899993 0.47316 0.5
238 1 0.924995 0.520444 0.5
239 1 0.949996 0.473162 0.5
240 1 0.974996 0.520446 0.5
281 1 0.999997 0.662298 0.5
262 1 0.524994 0.615005 0.5
263 1 0.549998 0.567722 0.5
264 1 0.575 0.615004 0.5
265 1 0.600002 0.567722 0.5
266 1 0.625006 0.615005 0.5
267 1 0.650007 0.567724 0.5
268 1 0.675009 0.615008 0.5
269 1 0.700012 0.567729 0.5
270 1 0.725015 0.615014 0.5
271 1 0.750017 0.567736 0.5
272 1 0.775021 0.615023 0.5
273 1 0.800019 0.567742 0.5
274 1 0.825024 0.615029 0.5
275 1 0.850012 0.567741 0.5
276 1 0.875016 0.615028 0.5
277 1 0.900003 0.567736 0.5
278 1 0.925005 0.615022 0.5
279 1 0.949997 0.567733 0.5
280 1 0.974997 0.615016 0.5
411 3 0.500093 0.946281 0.5
302 1 0.525 0.709569 0.5
303 1 0.549997 0.662285 0.5
304 1 0.575 0.709564 0.5
305 1 0.600003 0.662285 0.5
306 1 0.625 0.709569 0.5
307 1 0.650008 0.66229 0.5
308 1 0.675005 0.709575 0.5
309 1 0.700011 0.662296 0.5
310 1 0.72501 0.70958 0.5
311 1 0.750017 0.662302 0.5
312 1 0.775016 0.709586 0.5
313 1 0.800023 0.662312 0.5
314 1 0.825022 0.709595 0.5
315 1 0.850026 0.662317 0.5
316 1 0.875024 0.7096 0.5
317 1 0.900018 0.662316 0.5
318 1 0.925017 0.709598 0.5
319 1 0.950005 0.662308 0.5
320 1 0.975005 0.709585 0.5
417 1 0.799976 0.946188 0.5
342 1 0.525012 0.80415 0.5
343 1 0.550004 0.75685 0.5
344 1 0.575 0.804155 0.5
345 1 0.599996 0.75685 0.5
346 1 0.624988 0.80415 0.5
347 1 0.649991 0.756851 0.5
348 1 0.674983 0.804148 0.5
349 1 0.699997 0.756859 0.5
350 1 0.724984 0.804156 0.5
351 1 0.750005 0.756869 0.5
352 1 0.774997 0.804159 0.5
353 1 0.800014 0.756875 0.5
354 1 0.82501 0.804166 0.5
355 1 0.85002 0.756883 0.5
356 1 0.875018 0.804178 0.5
357 1 0.900022 0.756889 0.5
358 1 0.925019 0.804181 0.5
359 1 0.950014 0.756882 0.5
360 1 0.975011 0.804169 0.5
381 3 0.500017 0.851438 0.5
382 3 0.525009 0.898731 0.5
383 3 0.550006 0.851443 0.5
384 3 0.575 0.898746 0.5
385 3 0.599994 0.851443 0.5
386 3 0.624991 0.898731 0.5
387 3 0.649983 0.851438 0.5
388 3 0.674954 0.898751 0.5
389 3 0.699968 0.851441 0.5
390 3 0.724963 0.898715 0.5
391 3 0.749978 0.851434 0.5
392 3 0.774977 0.898711 0.5
393 1 0.799993 0.85144 0.5
394 1 0.82499 0.898718 0.5
395 1 0.850007 0.851452 0.5
396 1 0.875006 0.898735 0.5
397 1 0.900018 0.851465 0.5
398 1 0.925014 0.898755 0.5
399 1 0.950015 0.851467 0.5
400 1 0.975012 0.898747 0.5
421 3 0.614086 0.999898 0.5
412 3 0.549989 0.946099 0.5
413 3 0.600011 0.946099 0.5
414 3 0.649907 0.946281 0.5
415 3 0.699951 0.946202 0.5
416 3 0.749965 0.946182 0.5
201 1 0.999998 0.473163 0.5
1 2 0.999998 0.000103416 0.5
341 1 0.500009 0.756851 0.5
41 2 0.999996 0.0948754 0.5
181 1 0.500007 0.378589 0.5
141 1 0.500006 0.284013 0.5
81 1 0.999997 0.189459 0.5
121 1 0.999998 0.284026 0.5
161 1 0.999999 0.378592 0.5
241 1 0.999995 0.567733 0.5
ITEM: TIMESTEP
78
ITEM: NUMBER OF ATOMS
421
ITEM: BOX BOUNDS pp ss pp
0.0000000000000000e+00 2.2653923264628304e+01
2.1879574711865565e-01 2.0489328337648541e+01
-2.8317404080785380e-01 2.8317404080785380e-01
ITEM: ATOMS id type xs ys zs
221 1 0.499956 0.473097 0.5
2 2 0.0249978 0.0475864 0.5
3 2 0.0499993 0.000101646 0.5
4 2 0.075 0.0475857 0.5
5 2 0.100001 0.000101646 0.5
6 2 0.125002 0.0475864 0.5
7 2 0.150002 0.000103416 0.5
8 2 0.175004 0.0475882 0.5
9 2 0.200003 0.000106599 0.5
10 2 0.225005 0.0475906 0.5
11 2 0.250004 0.000110603 0.5
12 2 0.275005 0.0475931 0.5
13 2 0.300004 0.000114792 0.5
14 2 0.325005 0.0475952 0.5
15 2 0.350004 0.000118638 0.5
16 2 0.375004 0.047597 0.5
17 2 0.400004 0.000121803 0.5
18 2 0.425003 0.0475983 0.5
19 2 0.450003 0.00012414 0.5
20 2 0.475002 0.0475993 0.5
406 1 0.249834 0.946091 0.5
42 1 0.0249873 0.142161 0.5
43 2 0.0499985 0.0948755 0.5
44 1 0.074988 0.14216 0.5
45 2 0.100002 0.0948755 0.5
46 1 0.124989 0.14216 0.5
47 2 0.150004 0.0948754 0.5
48 1 0.174991 0.142159 0.5
49 2 0.200006 0.0948755 0.5
50 1 0.224993 0.142158 0.5
51 2 0.250007 0.0948759 0.5
52 1 0.274994 0.142158 0.5
53 2 0.300006 0.0948765 0.5
54 1 0.324996 0.142158 0.5
55 2 0.350005 0.0948771 0.5
56 1 0.374997 0.142159 0.5
57 2 0.400004 0.0948775 0.5
58 1 0.424999 0.142159 0.5
59 2 0.450003 0.0948779 0.5
60 1 0.475 0.14216 0.5
405 1 0.199842 0.946116 0.5
82 1 0.0249668 0.236737 0.5
83 1 0.0499767 0.189448 0.5
84 1 0.0749647 0.236733 0.5
85 1 0.0999764 0.189445 0.5
86 1 0.124964 0.236729 0.5
87 1 0.149977 0.189443 0.5
88 1 0.174965 0.236725 0.5
89 1 0.199979 0.189441 0.5
90 1 0.224968 0.236722 0.5
91 1 0.249981 0.18944 0.5
92 1 0.274972 0.236719 0.5
93 1 0.299985 0.189439 0.5
94 1 0.324977 0.236717 0.5
95 1 0.349988 0.189439 0.5
96 1 0.374982 0.236717 0.5
97 1 0.399992 0.189439 0.5
98 1 0.424987 0.236718 0.5
99 1 0.449995 0.18944 0.5
100 1 0.474992 0.23672 0.5
404 1 0.149842 0.946142 0.5
122 1 0.0249424 0.331317 0.5
123 1 0.0499535 0.284024 0.5
124 1 0.0749388 0.331309 0.5
125 1 0.0999515 0.284017 0.5
126 1 0.124938 0.331299 0.5
127 1 0.149952 0.284011 0.5
128 1 0.174939 0.33129 0.5
129 1 0.199954 0.284005 0.5
130 1 0.224942 0.331282 0.5
131 1 0.249958 0.284 0.5
132 1 0.274948 0.331275 0.5
133 1 0.299963 0.283996 0.5
134 1 0.324955 0.331271 0.5
135 1 0.34997 0.283994 0.5
136 1 0.374964 0.331269 0.5
137 1 0.399977 0.283994 0.5
138 1 0.424973 0.33127 0.5
139 1 0.449984 0.283996 0.5
140 1 0.474981 0.331274 0.5
403 1 0.099834 0.94617 0.5
162 1 0.0249119 0.4259 0.5
163 1 0.0499258 0.378603 0.5
164 1 0.0749084 0.425885 0.5
165 1 0.0999233 0.378591 0.5
166 1 0.124908 0.425869 0.5
167 1 0.149923 0.378578 0.5
168 1 0.174909 0.425854 0.5
169 1 0.199926 0.378566 0.5
170 1 0.224913 0.425839 0.5
171 1 0.249931 0.378556 0.5
172 1 0.27492 0.425826 0.5
173 1 0.299938 0.378548 0.5
174 1 0.324928 0.425817 0.5
175 1 0.349947 0.378543 0.5
176 1 0.374939 0.425813 0.5
177 1 0.399958 0.378542 0.5
178 1 0.424951 0.425815 0.5
179 1 0.449968 0.378545 0.5
180 1 0.474962 0.425821 0.5
410 3 0.449714 0.945985 0.5
202 1 0.0248753 0.520483 0.5
203 1 0.0498926 0.473183 0.5
204 1 0.0748742 0.520461 0.5
205 1 0.0998913 0.473164 0.5
206 1 0.124875 0.520438 0.5
207 1 0.149892 0.473144 0.5
208 1 0.174877 0.520415 0.5
209 1 0.199895 0.473125 0.5
210 1 0.224881 0.520393 0.5
211 1 0.2499 0.473108 0.5
212 1 0.274887 0.520374 0.5
213 1 0.299908 0.473094 0.5
214 1 0.324894 0.520358 0.5
215 1 0.349917 0.473085 0.5
216 1 0.374905 0.520349 0.5
217 1 0.39993 0.473082 0.5
218 1 0.424918 0.520349 0.5
219 1 0.449943 0.473086 0.5
220 1 0.474933 0.520358 0.5
402 1 0.0498178 0.9462 0.5
242 1 0.0248361 0.615065 0.5
243 1 0.049856 0.567762 0.5
244 1 0.07484 0.615035 0.5
245 1 0.0998577 0.567735 0.5
246 1 0.124844 0.615004 0.5
247 1 0.14986 0.567708 0.5
248 1 0.174847 0.614975 0.5
249 1 0.199863 0.567682 0.5
250 1 0.22485 0.614947 0.5
251 1 0.249867 0.567658 0.5
252 1 0.274852 0.61492 0.5
253 1 0.299872 0.567637 0.5
254 1 0.324855 0.614897 0.5
255 1 0.349879 0.56762 0.5
256 1 0.37486 0.614879 0.5
257 1 0.399889 0.567611 0.5
258 1 0.424869 0.61487 0.5
259 1 0.449904 0.567614 0.5
260 1 0.474886 0.614878 0.5
409 1 0.39976 0.946012 0.5
282 1 0.0248019 0.709637 0.5
283 1 0.0498215 0.662335 0.5
284 1 0.0748131 0.709601 0.5
285 1 0.0998284 0.662302 0.5
286 1 0.124821 0.709566 0.5
287 1 0.149833 0.66227 0.5
288 1 0.174826 0.709533 0.5
289 1 0.199836 0.662239 0.5
290 1 0.224826 0.709501 0.5
291 1 0.249837 0.662209 0.5
292 1 0.274823 0.709471 0.5
293 1 0.299836 0.662181 0.5
294 1 0.324818 0.709441 0.5
295 1 0.349835 0.662155 0.5
296 1 0.37481 0.709413 0.5
297 1 0.399835 0.662134 0.5
298 1 0.424804 0.709387 0.5
299 1 0.449843 0.662125 0.5
300 1 0.474808 0.709373 0.5
321 1 -0.000219032 0.756938 0.5
322 1 0.0247836 0.804196 0.5
323 1 0.0497981 0.756899 0.5
324 1 0.0748017 0.804158 0.5
325 1 0.0998105 0.756863 0.5
326 1 0.124813 0.804123 0.5
327 1 0.149818 0.756828 0.5
328 1 0.174818 0.80409 0.5
329 1 0.19982 0.756796 0.5
330 1 0.224817 0.804059 0.5
331 1 0.249817 0.756764 0.5
332 1 0.274809 0.804028 0.5
333 1 0.299809 0.756733 0.5
334 1 0.324795 0.803997 0.5
335 1 0.349797 0.756701 0.5
336 1 0.374775 0.803964 0.5
337 1 0.399781 0.756669 0.5
338 1 0.424748 0.803928 0.5
339 1 0.449764 0.756634 0.5
340 1 0.474713 0.803876 0.5
408 1 0.349795 0.94604 0.5
362 1 0.0247913 0.898744 0.5
363 1 0.049795 0.851451 0.5
364 1 0.0748126 0.898709 0.5
365 1 0.0998113 0.851416 0.5
366 1 0.124825 0.898678 0.5
367 1 0.14982 0.851384 0.5
368 1 0.17483 0.898649 0.5
369 1 0.199821 0.851353 0.5
370 1 0.224827 0.898621 0.5
371 1 0.249815 0.851324 0.5
372 1 0.274816 0.898594 0.5
373 1 0.299802 0.851294 0.5
374 1 0.324797 0.898566 0.5
375 1 0.349782 0.851263 0.5
376 1 0.374769 0.898536 0.5
377 1 0.399754 0.851229 0.5
378 1 0.42473 0.898503 0.5
379 3 0.449719 0.851189 0.5
380 3 0.47467 0.898455 0.5
407 1 0.299819 0.946066 0.5
261 1 0.499921 0.56763 0.5
401 1 -0.00020803 0.946233 0.5
361 1 -0.000229578 0.85149 0.5
301 1 0.499864 0.662141 0.5
21 2 0.500002 0.00012564 0.5
22 2 0.525001 0.0475999 0.5
23 2 0.550001 0.000126362 0.5
24 2 0.575 0.0476001 0.5
25 2 0.599999 0.000126362 0.5
26 2 0.624999 0.0475999 0.5
27 2 0.649998 0.00012564 0.5
28 2 0.674998 0.0475993 0.5
29 2 0.699997 0.00012414 0.5
30 2 0.724997 0.0475983 0.5
31 2 0.749996 0.000121803 0.5
32 2 0.774996 0.047597 0.5
33 2 0.799996 0.000118638 0.5
34 2 0.824995 0.0475952 0.5
35 2 0.849996 0.000114792 0.5
36 2 0.874995 0.0475931 0.5
37 2 0.899996 0.000110603 0.5
38 2 0.924995 0.0475906 0.5
39 2 0.949997 0.000106599 0.5
40 2 0.974996 0.0475882 0.5
61 2 0.500002 0.0948782 0.5
62 1 0.525 0.142161 0.5
63 2 0.550001 0.0948783 0.5
64 1 0.575001 0.142162 0.5
65 2 0.599999 0.0948783 0.5
66 1 0.625 0.142162 0.5
67 2 0.649998 0.0948782 0.5
68 1 0.674999 0.142163 0.5
69 2 0.699997 0.0948779 0.5
70 1 0.724997 0.142164 0.5
71 2 0.749996 0.0948775 0.5
72 1 0.774995 0.142164 0.5
73 2 0.799995 0.0948771 0.5
74 1 0.824993 0.142164 0.5
75 2 0.849994 0.0948765 0.5
76 1 0.874991 0.142164 0.5
77 2 0.899993 0.0948759 0.5
78 1 0.924989 0.142163 0.5
79 2 0.949994 0.0948755 0.5
80 1 0.974987 0.142162 0.5
101 1 0.499998 0.189441 0.5
102 1 0.524996 0.236723 0.5
103 1 0.55 0.189443 0.5
104 1 0.574999 0.236726 0.5
105 1 0.6 0.189445 0.5
106 1 0.624999 0.23673 0.5
107 1 0.65 0.189447 0.5
108 1 0.674998 0.236734 0.5
109 1 0.699998 0.189449 0.5
110 1 0.724996 0.236737 0.5
111 1 0.749996 0.189451 0.5
112 1 0.774992 0.23674 0.5
113 1 0.799992 0.189452 0.5
114 1 0.824987 0.236742 0.5
115 1 0.849988 0.189453 0.5
116 1 0.874981 0.236743 0.5
117 1 0.899984 0.189452 0.5
118 1 0.924975 0.236742 0.5
119 1 0.949981 0.189451 0.5
120 1 0.97497 0.23674 0.5
420 1 0.949754 0.946271 0.5
142 1 0.524988 0.33128 0.5
143 1 0.549995 0.284004 0.5
144 1 0.574992 0.331288 0.5
145 1 0.599997 0.28401 0.5
146 1 0.624994 0.331297 0.5
147 1 0.649997 0.284016 0.5
148 1 0.674993 0.331306 0.5
149 1 0.699995 0.284022 0.5
150 1 0.724988 0.331314 0.5
151 1 0.74999 0.284028 0.5
152 1 0.774982 0.331321 0.5
153 1 0.799984 0.284032 0.5
154 1 0.824974 0.331326 0.5
155 1 0.849977 0.284034 0.5
156 1 0.874965 0.331328 0.5
157 1 0.89997 0.284034 0.5
158 1 0.924956 0.331327 0.5
159 1 0.949963 0.284033 0.5
160 1 0.974948 0.331323 0.5
419 1 0.899702 0.946315 0.5
182 1 0.524972 0.425832 0.5
183 1 0.549984 0.378562 0.5
184 1 0.574979 0.425846 0.5
185 1 0.599988 0.378573 0.5
186 1 0.624982 0.425863 0.5
187 1 0.649988 0.378586 0.5
188 1 0.67498 0.425879 0.5
189 1 0.699985 0.378598 0.5
190 1 0.724973 0.425895 0.5
191 1 0.749978 0.378609 0.5
192 1 0.774963 0.425908 0.5
193 1 0.799969 0.378617 0.5
194 1 0.824951 0.425917 0.5
195 1 0.849958 0.378622 0.5
196 1 0.874938 0.425921 0.5
197 1 0.899948 0.378623 0.5
198 1 0.924927 0.425918 0.5
199 1 0.949938 0.37862 0.5
200 1 0.974918 0.425911 0.5
418 1 0.849628 0.946367 0.5
222 1 0.524947 0.520375 0.5
223 1 0.549966 0.473114 0.5
224 1 0.574957 0.5204 0.5
225 1 0.599972 0.473134 0.5
226 1 0.624961 0.520428 0.5
227 1 0.649972 0.473156 0.5
228 1 0.674957 0.520457 0.5
229 1 0.699966 0.473178 0.5
230 1 0.724946 0.520484 0.5
231 1 0.749956 0.473198 0.5
232 1 0.774931 0.520506 0.5
233 1 0.799942 0.473212 0.5
234 1 0.824914 0.52052 0.5
235 1 0.849927 0.47322 0.5
236 1 0.874899 0.520523 0.5
237 1 0.899914 0.473219 0.5
238 1 0.924887 0.520516 0.5
239 1 0.949904 0.473212 0.5
240 1 0.974879 0.520502 0.5
281 1 0.999814 0.662369 0.5
262 1 0.524906 0.614904 0.5
263 1 0.549936 0.567657 0.5
264 1 0.574921 0.614944 0.5
265 1 0.599944 0.567691 0.5
266 1 0.624927 0.614992 0.5
267 1 0.649944 0.567729 0.5
268 1 0.674919 0.615043 0.5
269 1 0.699934 0.567767 0.5
270 1 0.7249 0.615089 0.5
271 1 0.749917 0.567799 0.5
272 1 0.774876 0.615122 0.5
273 1 0.799897 0.56782 0.5
274 1 0.824854 0.615137 0.5
275 1 0.849879 0.567829 0.5
276 1 0.87484 0.615134 0.5
277 1 0.899866 0.567823 0.5
278 1 0.924834 0.615117 0.5
279 1 0.949859 0.567808 0.5
280 1 0.974834 0.615093 0.5
411 3 0.499608 0.945937 0.5
302 1 0.524835 0.709402 0.5
303 1 0.549887 0.662182 0.5
304 1 0.574864 0.709468 0.5
305 1 0.599902 0.66224 0.5
306 1 0.624874 0.709556 0.5
307 1 0.6499 0.662308 0.5
308 1 0.674856 0.709649 0.5
309 1 0.69988 0.662373 0.5
310 1 0.724817 0.709727 0.5
311 1 0.74985 0.662425 0.5
312 1 0.77478 0.70977 0.5
313 1 0.799822 0.66245 0.5
314 1 0.824765 0.709768 0.5
315 1 0.849807 0.662448 0.5
316 1 0.874766 0.709744 0.5
317 1 0.899804 0.662429 0.5
318 1 0.924776 0.709711 0.5
319 1 0.949807 0.662401 0.5
320 1 0.974789 0.709674 0.5
417 1 0.799522 0.946428 0.5
342 1 0.524686 0.803818 0.5
343 1 0.549801 0.756663 0.5
344 1 0.57476 0.803933 0.5
345 1 0.599834 0.756772 0.5
346 1 0.624789 0.80412 0.5
347 1 0.649827 0.756904 0.5
348 1 0.674732 0.804321 0.5
349 1 0.699778 0.757028 0.5
350 1 0.724635 0.804457 0.5
351 1 0.749721 0.757101 0.5
352 1 0.77463 0.804432 0.5
353 1 0.799707 0.757095 0.5
354 1 0.824658 0.804383 0.5
355 1 0.849718 0.757062 0.5
356 1 0.874693 0.804332 0.5
357 1 0.899738 0.757021 0.5
358 1 0.924728 0.804283 0.5
359 1 0.94976 0.756979 0.5
360 1 0.974759 0.804237 0.5
381 3 0.499653 0.851113 0.5
382 3 0.524543 0.89836 0.5
383 3 0.549568 0.850976 0.5
384 3 0.574304 0.89803 0.5
385 3 0.599712 0.851239 0.5
386 3 0.624578 0.898724 0.5
387 3 0.649684 0.851579 0.5
388 3 0.674193 0.899434 0.5
389 3 0.6995 0.851866 0.5
390 3 0.724338 0.899166 0.5
391 3 0.749525 0.851783 0.5
392 3 0.77449 0.899015 0.5
393 1 0.799583 0.851703 0.5
394 1 0.824585 0.898942 0.5
395 1 0.849642 0.851639 0.5
396 1 0.87466 0.898879 0.5
397 1 0.899694 0.851583 0.5
398 1 0.924717 0.898827 0.5
399 1 0.949737 0.851533 0.5
400 1 0.97476 0.898782 0.5
421 3 0.617899 0.994732 0.5
412 3 0.549399 0.945864 0.5
413 3 0.598751 0.94497 0.5
414 3 0.648424 0.947607 0.5
415 3 0.699029 0.946765 0.5
416 3 0.749361 0.946509 0.5
201 1 0.999897 0.473199 0.5
1 2 0.999998 0.000103416 0.5
341 1 0.499759 0.756608 0.5
41 2 0.999996 0.0948754 0.5
181 1 0.499977 0.378552 0.5
141 1 0.49999 0.284 0.5
81 1 0.999978 0.18945 0.5
121 1 0.999958 0.284029 0.5
161 1 0.999931 0.378613 0.5
241 1 0.999856 0.567787 0.5
ITEM: TIMESTEP
107
ITEM: NUMBER OF ATOMS
421
ITEM: BOX BOUNDS pp ss pp
0.0000000000000000e+00 2.2653923264628304e+01
2.1879574711865565e-01 2.0384593798637940e+01
-2.8317404080785380e-01 2.8317404080785380e-01
ITEM: ATOMS id type xs ys zs
221 1 0.499909 0.475549 0.5
2 2 0.0249978 0.0478335 0.5
3 2 0.0499993 0.000102174 0.5
4 2 0.075 0.0478329 0.5
5 2 0.100001 0.000102174 0.5
6 2 0.125002 0.0478335 0.5
7 2 0.150002 0.000103953 0.5
8 2 0.175004 0.0478353 0.5
9 2 0.200003 0.000107153 0.5
10 2 0.225005 0.0478378 0.5
11 2 0.250004 0.000111177 0.5
12 2 0.275005 0.0478403 0.5
13 2 0.300004 0.000115388 0.5
14 2 0.325005 0.0478424 0.5
15 2 0.350004 0.000119254 0.5
16 2 0.375004 0.0478442 0.5
17 2 0.400004 0.000122436 0.5
18 2 0.425003 0.0478455 0.5
19 2 0.450003 0.000124785 0.5
20 2 0.475002 0.0478465 0.5
406 1 0.249771 0.950994 0.5
42 1 0.0249803 0.142899 0.5
43 2 0.0499985 0.0953682 0.5
44 1 0.074981 0.142898 0.5
45 2 0.100002 0.0953682 0.5
46 1 0.124982 0.142897 0.5
47 2 0.150004 0.0953682 0.5
48 1 0.174984 0.142896 0.5
49 2 0.200006 0.0953683 0.5
50 1 0.224986 0.142896 0.5
51 2 0.250007 0.0953686 0.5
52 1 0.274987 0.142896 0.5
53 2 0.300006 0.0953692 0.5
54 1 0.324989 0.142896 0.5
55 2 0.350005 0.0953698 0.5
56 1 0.37499 0.142897 0.5
57 2 0.400004 0.0953703 0.5
58 1 0.424992 0.142897 0.5
59 2 0.450003 0.0953707 0.5
60 1 0.474993 0.142898 0.5
405 1 0.199777 0.95102 0.5
82 1 0.0249463 0.237965 0.5
83 1 0.0499629 0.19043 0.5
84 1 0.074944 0.237961 0.5
85 1 0.0999625 0.190428 0.5
86 1 0.124943 0.237957 0.5
87 1 0.149963 0.190426 0.5
88 1 0.174945 0.237953 0.5
89 1 0.199965 0.190424 0.5
90 1 0.224947 0.237949 0.5
91 1 0.249968 0.190422 0.5
92 1 0.274951 0.237947 0.5
93 1 0.299971 0.190421 0.5
94 1 0.324956 0.237945 0.5
95 1 0.349974 0.190421 0.5
96 1 0.374962 0.237945 0.5
97 1 0.399978 0.190422 0.5
98 1 0.424967 0.237945 0.5
99 1 0.449982 0.190422 0.5
100 1 0.474972 0.237947 0.5
404 1 0.149777 0.951048 0.5
122 1 0.0249093 0.333034 0.5
123 1 0.0499265 0.285496 0.5
124 1 0.0749056 0.333026 0.5
125 1 0.0999243 0.28549 0.5
126 1 0.124904 0.333017 0.5
127 1 0.149924 0.285483 0.5
128 1 0.174905 0.333008 0.5
129 1 0.199926 0.285477 0.5
130 1 0.224909 0.332999 0.5
131 1 0.249931 0.285472 0.5
132 1 0.274915 0.332992 0.5
133 1 0.299936 0.285468 0.5
134 1 0.324922 0.332988 0.5
135 1 0.349943 0.285466 0.5
136 1 0.374931 0.332986 0.5
137 1 0.399951 0.285466 0.5
138 1 0.42494 0.332987 0.5
139 1 0.449958 0.285468 0.5
140 1 0.474949 0.332991 0.5
403 1 0.0997687 0.951077 0.5
162 1 0.0248679 0.428107 0.5
163 1 0.0498869 0.380565 0.5
164 1 0.0748641 0.428093 0.5
165 1 0.0998842 0.380553 0.5
166 1 0.124863 0.428077 0.5
167 1 0.149884 0.380541 0.5
168 1 0.174865 0.428061 0.5
169 1 0.199887 0.380528 0.5
170 1 0.224869 0.428046 0.5
171 1 0.249892 0.380518 0.5
172 1 0.274876 0.428033 0.5
173 1 0.2999 0.38051 0.5
174 1 0.324885 0.428024 0.5
175 1 0.349909 0.380505 0.5
176 1 0.374896 0.42802 0.5
177 1 0.399919 0.380504 0.5
178 1 0.424908 0.428022 0.5
179 1 0.44993 0.380508 0.5
180 1 0.47492 0.428028 0.5
410 3 0.449662 0.950879 0.5
202 1 0.0248224 0.523182 0.5
203 1 0.0498436 0.475636 0.5
204 1 0.0748208 0.523159 0.5
205 1 0.099842 0.475617 0.5
206 1 0.124821 0.523136 0.5
207 1 0.149843 0.475597 0.5
208 1 0.174824 0.523112 0.5
209 1 0.199846 0.475577 0.5
210 1 0.224828 0.52309 0.5
211 1 0.249851 0.47556 0.5
212 1 0.274834 0.523071 0.5
213 1 0.299859 0.475546 0.5
214 1 0.324842 0.523055 0.5
215 1 0.349869 0.475536 0.5
216 1 0.374853 0.523046 0.5
217 1 0.399882 0.475534 0.5
218 1 0.424867 0.523046 0.5
219 1 0.449896 0.475538 0.5
220 1 0.474882 0.523055 0.5
402 1 0.0497528 0.951109 0.5
242 1 0.0247766 0.618253 0.5
243 1 0.0497992 0.570705 0.5
244 1 0.07478 0.618223 0.5
245 1 0.0998006 0.570678 0.5
246 1 0.124784 0.618192 0.5
247 1 0.149803 0.570651 0.5
248 1 0.174787 0.618162 0.5
249 1 0.199806 0.570624 0.5
250 1 0.22479 0.618134 0.5
251 1 0.24981 0.5706 0.5
252 1 0.274793 0.618107 0.5
253 1 0.299816 0.570578 0.5
254 1 0.324796 0.618083 0.5
255 1 0.349823 0.570562 0.5
256 1 0.374802 0.618065 0.5
257 1 0.399834 0.570553 0.5
258 1 0.424813 0.618057 0.5
259 1 0.44985 0.570556 0.5
260 1 0.47483 0.618065 0.5
409 1 0.399704 0.950909 0.5
282 1 0.0247383 0.713317 0.5
283 1 0.0497593 0.665769 0.5
284 1 0.0747488 0.71328 0.5
285 1 0.0997657 0.665736 0.5
286 1 0.124756 0.713245 0.5
287 1 0.149771 0.665703 0.5
288 1 0.174761 0.713211 0.5
289 1 0.199774 0.665671 0.5
290 1 0.224762 0.713178 0.5
291 1 0.249775 0.665641 0.5
292 1 0.27476 0.713147 0.5
293 1 0.299775 0.665612 0.5
294 1 0.324756 0.713117 0.5
295 1 0.349775 0.665587 0.5
296 1 0.37475 0.713088 0.5
297 1 0.399777 0.665566 0.5
298 1 0.424746 0.713063 0.5
299 1 0.449786 0.665557 0.5
300 1 0.474751 0.71305 0.5
301 1 0.499807 0.665573 0.5
322 1 0.0247183 0.808367 0.5
323 1 0.0497329 0.760824 0.5
324 1 0.0747355 0.808328 0.5
325 1 0.0997448 0.760787 0.5
326 1 0.124747 0.808292 0.5
327 1 0.149752 0.760752 0.5
328 1 0.174752 0.808258 0.5
329 1 0.199755 0.760718 0.5
330 1 0.224751 0.808226 0.5
331 1 0.249752 0.760685 0.5
332 1 0.274744 0.808194 0.5
333 1 0.299746 0.760653 0.5
334 1 0.324732 0.808162 0.5
335 1 0.349735 0.760622 0.5
336 1 0.374714 0.808128 0.5
337 1 0.399721 0.76059 0.5
338 1 0.424691 0.808092 0.5
339 1 0.449707 0.760556 0.5
340 1 0.474659 0.808042 0.5
408 1 0.349735 0.950939 0.5
362 1 0.0247261 0.903407 0.5
363 1 0.049729 0.855868 0.5
364 1 0.0747467 0.903371 0.5
365 1 0.0997448 0.855832 0.5
366 1 0.124759 0.903338 0.5
367 1 0.149753 0.855798 0.5
368 1 0.174764 0.903308 0.5
369 1 0.199755 0.855766 0.5
370 1 0.224762 0.903278 0.5
371 1 0.24975 0.855735 0.5
372 1 0.274752 0.903249 0.5
373 1 0.299739 0.855704 0.5
374 1 0.324735 0.90322 0.5
375 1 0.34972 0.855672 0.5
376 1 0.37471 0.903188 0.5
377 1 0.399696 0.855637 0.5
378 1 0.424675 0.903153 0.5
379 3 0.449666 0.855596 0.5
380 3 0.47462 0.903104 0.5
407 1 0.299757 0.950967 0.5
261 1 0.499867 0.570572 0.5
101 1 0.499984 0.190424 0.5
411 3 0.499559 0.950832 0.5
381 3 0.499605 0.855523 0.5
341 1 0.499705 0.760532 0.5
181 1 0.49994 0.380514 0.5
141 1 0.499964 0.285472 0.5
21 2 0.500002 0.000126292 0.5
22 2 0.525001 0.0478471 0.5
23 2 0.550001 0.000127018 0.5