ITEM: TIMESTEP
0
ITEM: NUMBER OF ATOMS
421
ITEM: BOX BOUNDS pp ss pp
0.0000000000000000e+00 2.2653923264628304e+01
2.1879574711865565e-01 2.0438400035104006e+01
-2.8317404080785380e-01 2.8317404080785380e-01
ITEM: ATOMS id type xs ys zs
221 1 0.499997 0.474352 0.5
2 2 0.0249978 0.0477062 0.5
3 2 0.0499993 0.000101902 0.5
4 2 0.075 0.0477056 0.5
5 2 0.100001 0.000101902 0.5
6 2 0.125002 0.0477062 0.5
7 2 0.150002 0.000103676 0.5
8 2 0.175004 0.047708 0.5
9 2 0.200003 0.000106867 0.5
10 2 0.225005 0.0477105 0.5
11 2 0.250004 0.000110881 0.5
12 2 0.275005 0.047713 0.5
13 2 0.300004 0.000115081 0.5
14 2 0.325005 0.0477151 0.5
15 2 0.350004 0.000118937 0.5
16 2 0.375004 0.0477168 0.5
17 2 0.400004 0.00012211 0.5
18 2 0.425003 0.0477182 0.5
19 2 0.450003 0.000124453 0.5
20 2 0.475002 0.0477192 0.5
406 1 0.250001 0.948607 0.5
42 1 0.0249972 0.142523 0.5
43 2 0.0499985 0.0951144 0.5
44 1 0.075 0.142524 0.5
45 2 0.100002 0.0951144 0.5
46 1 0.125003 0.142523 0.5
47 2 0.150004 0.0951144 0.5
48 1 0.175005 0.142522 0.5
49 2 0.200006 0.0951145 0.5
50 1 0.225007 0.14252 0.5
51 2 0.250007 0.0951148 0.5
52 1 0.275007 0.142519 0.5
53 2 0.300006 0.0951154 0.5
54 1 0.325007 0.142519 0.5
55 2 0.350005 0.095116 0.5
56 1 0.375006 0.142519 0.5
57 2 0.400004 0.0951165 0.5
58 1 0.425004 0.142519 0.5
59 2 0.450003 0.0951169 0.5
60 1 0.475003 0.142519 0.5
405 1 0.199986 0.948622 0.5
82 1 0.0249986 0.237343 0.5
83 1 0.049999 0.189938 0.5
84 1 0.075 0.237343 0.5
85 1 0.100001 0.189938 0.5
86 1 0.125001 0.237343 0.5
87 1 0.150003 0.189936 0.5
88 1 0.175003 0.237341 0.5
89 1 0.200005 0.189933 0.5
90 1 0.225006 0.237337 0.5
91 1 0.250007 0.189931 0.5
92 1 0.275008 0.237334 0.5
93 1 0.300008 0.189929 0.5
94 1 0.325009 0.237332 0.5
95 1 0.350007 0.189928 0.5
96 1 0.375008 0.237331 0.5
97 1 0.400006 0.189928 0.5
98 1 0.425007 0.237331 0.5
99 1 0.450004 0.189928 0.5
100 1 0.475005 0.237331 0.5
404 1 0.14998 0.948595 0.5
122 1 0.024999 0.332145 0.5
123 1 0.0499995 0.284742 0.5
124 1 0.075 0.332145 0.5
125 1 0.100001 0.284742 0.5
126 1 0.125001 0.332145 0.5
127 1 0.150002 0.284741 0.5
128 1 0.175002 0.332143 0.5
129 1 0.200004 0.284738 0.5
130 1 0.225005 0.33214 0.5
131 1 0.250006 0.284736 0.5
132 1 0.275007 0.332137 0.5
133 1 0.300009 0.284732 0.5
134 1 0.325011 0.332134 0.5
135 1 0.35001 0.28473 0.5
136 1 0.375012 0.332131 0.5
137 1 0.40001 0.284729 0.5
138 1 0.425013 0.332131 0.5
139 1 0.450008 0.284729 0.5
140 1 0.475011 0.332132 0.5
403 1 0.0999905 0.948564 0.5
162 1 0.024999 0.426953 0.5
163 1 0.0499993 0.379547 0.5
164 1 0.075 0.426954 0.5
165 1 0.100001 0.379547 0.5
166 1 0.125001 0.426953 0.5
167 1 0.150001 0.379546 0.5
168 1 0.175002 0.426952 0.5
169 1 0.200003 0.379543 0.5
170 1 0.225005 0.42695 0.5
171 1 0.250006 0.379541 0.5
172 1 0.275008 0.426948 0.5
173 1 0.300009 0.379538 0.5
174 1 0.325012 0.426945 0.5
175 1 0.350014 0.379536 0.5
176 1 0.375013 0.426944 0.5
177 1 0.400015 0.379535 0.5
178 1 0.425009 0.426948 0.5
179 1 0.450013 0.379538 0.5
180 1 0.475002 0.426951 0.5
410 3 0.450049 0.948586 0.5
202 1 0.0249985 0.521757 0.5
203 1 0.0499994 0.474356 0.5
204 1 0.075 0.521758 0.5
205 1 0.100001 0.474356 0.5
206 1 0.125002 0.521757 0.5
207 1 0.150002 0.474355 0.5
208 1 0.175004 0.521757 0.5
209 1 0.200004 0.474354 0.5
210 1 0.225005 0.521755 0.5
211 1 0.250007 0.474352 0.5
212 1 0.275002 0.521755 0.5
213 1 0.300008 0.47435 0.5
214 1 0.324995 0.521758 0.5
215 1 0.350004 0.474351 0.5
216 1 0.374989 0.521761 0.5
217 1 0.399999 0.474355 0.5
218 1 0.424989 0.521756 0.5
219 1 0.449996 0.474355 0.5
220 1 0.474993 0.521751 0.5
402 1 0.0500095 0.948564 0.5
242 1 0.0249956 0.616563 0.5
243 1 0.0499984 0.569163 0.5
244 1 0.075 0.616563 0.5
245 1 0.100002 0.569163 0.5
246 1 0.125004 0.616563 0.5
247 1 0.150005 0.569163 0.5
248 1 0.175003 0.616565 0.5
249 1 0.200003 0.569163 0.5
250 1 0.224995 0.616571 0.5
251 1 0.249997 0.569166 0.5
252 1 0.274984 0.616577 0.5
253 1 0.299988 0.569171 0.5
254 1 0.324976 0.616578 0.5
255 1 0.349981 0.569172 0.5
256 1 0.374979 0.616572 0.5
257 1 0.399983 0.569166 0.5
258 1 0.424985 0.616563 0.5
259 1 0.449988 0.569159 0.5
260 1 0.474991 0.616557 0.5
409 1 0.400035 0.948565 0.5
282 1 0.024998 0.71136 0.5
283 1 0.0499969 0.663962 0.5
284 1 0.075 0.711356 0.5
285 1 0.100003 0.663962 0.5
286 1 0.125002 0.71136 0.5
287 1 0.150003 0.663966 0.5
288 1 0.174995 0.711372 0.5
289 1 0.199995 0.663976 0.5
290 1 0.224983 0.711385 0.5
291 1 0.249982 0.663984 0.5
292 1 0.274976 0.711388 0.5
293 1 0.299974 0.663985 0.5
294 1 0.324978 0.711382 0.5
295 1 0.349977 0.66398 0.5
296 1 0.374984 0.711373 0.5
297 1 0.399983 0.66397 0.5
298 1 0.42499 0.711367 0.5
299 1 0.449989 0.663964 0.5
300 1 0.474995 0.711362 0.5
321 1 3.64377e-06 0.758772 0.5
322 1 0.025002 0.806174 0.5
323 1 0.0499996 0.758757 0.5
324 1 0.075 0.806163 0.5
325 1 0.1 0.758757 0.5
326 1 0.124998 0.806174 0.5
327 1 0.149996 0.758772 0.5
328 1 0.174989 0.806195 0.5
329 1 0.199986 0.758789 0.5
330 1 0.224981 0.806206 0.5
331 1 0.249978 0.758795 0.5
332 1 0.274982 0.806203 0.5
333 1 0.29998 0.75879 0.5
334 1 0.32499 0.806192 0.5
335 1 0.349986 0.758781 0.5
336 1 0.375003 0.806184 0.5
337 1 0.399995 0.758775 0.5
338 1 0.425016 0.806181 0.5
339 1 0.450003 0.758766 0.5
340 1 0.475017 0.806173 0.5
408 1 0.350024 0.948572 0.5
362 1 0.0250069 0.900978 0.5
363 1 0.0500014 0.853566 0.5
364 1 0.075 0.900961 0.5
365 1 0.0999986 0.853566 0.5
366 1 0.124993 0.900978 0.5
367 1 0.149994 0.853592 0.5
368 1 0.174988 0.90101 0.5
369 1 0.199985 0.853611 0.5
370 1 0.224986 0.901019 0.5
371 1 0.249982 0.853609 0.5
372 1 0.274994 0.900999 0.5
373 1 0.299993 0.853596 0.5
374 1 0.32501 0.900982 0.5
375 1 0.350007 0.853584 0.5
376 1 0.375023 0.900975 0.5
377 1 0.400022 0.853578 0.5
378 1 0.425037 0.900979 0.5
379 3 0.450032 0.853585 0.5
380 3 0.475046 0.901015 0.5
407 1 0.300014 0.948578 0.5
261 1 0.499993 0.569154 0.5
401 1 2.0232e-05 0.948595 0.5
361 1 6.38311e-06 0.853592 0.5
301 1 0.499992 0.663958 0.5
21 2 0.500002 0.000125956 0.5
22 2 0.525001 0.0477198 0.5
23 2 0.550001 0.00012668 0.5
24 2 0.575 0.04772 0.5
25 2 0.599999 0.00012668 0.5
26 2 0.624999 0.0477198 0.5
27 2 0.649998 0.000125956 0.5
28 2 0.674998 0.0477192 0.5
29 2 0.699997 0.000124453 0.5
30 2 0.724997 0.0477182 0.5
31 2 0.749996 0.00012211 0.5
32 2 0.774996 0.0477168 0.5
33 2 0.799996 0.000118937 0.5
34 2 0.824995 0.0477151 0.5
35 2 0.849996 0.000115081 0.5
36 2 0.874995 0.047713 0.5
37 2 0.899996 0.000110881 0.5
38 2 0.924995 0.0477105 0.5
39 2 0.949997 0.000106867 0.5
40 2 0.974996 0.047708 0.5
61 2 0.500002 0.0951171 0.5
62 1 0.525001 0.142518 0.5
63 2 0.550001 0.0951173 0.5
64 1 0.575 0.142518 0.5
65 2 0.599999 0.0951173 0.5
66 1 0.624999 0.142518 0.5
67 2 0.649998 0.0951171 0.5
68 1 0.674997 0.142519 0.5
69 2 0.699997 0.0951169 0.5
70 1 0.724996 0.142519 0.5
71 2 0.749996 0.0951165 0.5
72 1 0.774994 0.142519 0.5
73 2 0.799995 0.095116 0.5
74 1 0.824993 0.142519 0.5
75 2 0.849994 0.0951154 0.5
76 1 0.874993 0.142519 0.5
77 2 0.899993 0.0951148 0.5
78 1 0.924993 0.14252 0.5
79 2 0.949994 0.0951145 0.5
80 1 0.974995 0.142522 0.5
101 1 0.500002 0.189928 0.5
102 1 0.525002 0.23733 0.5
103 1 0.550001 0.189929 0.5
104 1 0.575 0.237329 0.5
105 1 0.599999 0.189929 0.5
106 1 0.624998 0.23733 0.5
107 1 0.649998 0.189928 0.5
108 1 0.674995 0.237331 0.5
109 1 0.699996 0.189928 0.5
110 1 0.724993 0.237331 0.5
111 1 0.749994 0.189928 0.5
112 1 0.774992 0.237331 0.5
113 1 0.799993 0.189928 0.5
114 1 0.824991 0.237332 0.5
115 1 0.849992 0.189929 0.5
116 1 0.874992 0.237334 0.5
117 1 0.899993 0.189931 0.5
118 1 0.924994 0.237337 0.5
119 1 0.949995 0.189933 0.5
120 1 0.974997 0.237341 0.5
420 1 0.950014 0.948622 0.5
142 1 0.525006 0.332136 0.5
143 1 0.550003 0.284729 0.5
144 1 0.575 0.332138 0.5
145 1 0.599997 0.284729 0.5
146 1 0.624994 0.332136 0.5
147 1 0.649994 0.284729 0.5
148 1 0.674989 0.332132 0.5
149 1 0.699992 0.284729 0.5
150 1 0.724987 0.332131 0.5
151 1 0.74999 0.284729 0.5
152 1 0.774988 0.332131 0.5
153 1 0.79999 0.28473 0.5
154 1 0.824989 0.332134 0.5
155 1 0.849991 0.284732 0.5
156 1 0.874993 0.332137 0.5
157 1 0.899994 0.284736 0.5
158 1 0.924995 0.33214 0.5
159 1 0.949996 0.284738 0.5
160 1 0.974998 0.332143 0.5
419 1 0.899999 0.948607 0.5
182 1 0.525001 0.426951 0.5
183 1 0.550001 0.379543 0.5
184 1 0.575 0.426951 0.5
185 1 0.599999 0.379543 0.5
186 1 0.624999 0.426951 0.5
187 1 0.649993 0.379542 0.5
188 1 0.674998 0.426951 0.5
189 1 0.699987 0.379538 0.5
190 1 0.724991 0.426948 0.5
191 1 0.749985 0.379535 0.5
192 1 0.774987 0.426944 0.5
193 1 0.799986 0.379536 0.5
194 1 0.824988 0.426945 0.5
195 1 0.849991 0.379538 0.5
196 1 0.874992 0.426948 0.5
197 1 0.899994 0.379541 0.5
198 1 0.924995 0.42695 0.5
199 1 0.949997 0.379543 0.5
200 1 0.974998 0.426952 0.5
418 1 0.849986 0.948578 0.5
222 1 0.524995 0.521748 0.5
223 1 0.549999 0.474352 0.5
224 1 0.575 0.521746 0.5
225 1 0.600001 0.474352 0.5
226 1 0.625005 0.521748 0.5
227 1 0.650003 0.474352 0.5
228 1 0.675007 0.521751 0.5
229 1 0.700004 0.474355 0.5
230 1 0.725011 0.521756 0.5
231 1 0.750001 0.474355 0.5
232 1 0.775011 0.521761 0.5
233 1 0.799996 0.474351 0.5
234 1 0.825005 0.521758 0.5
235 1 0.849992 0.47435 0.5
236 1 0.874998 0.521755 0.5
237 1 0.899993 0.474352 0.5
238 1 0.924995 0.521755 0.5
239 1 0.949996 0.474354 0.5
240 1 0.974996 0.521757 0.5
281 1 0.999997 0.663966 0.5
262 1 0.524994 0.616554 0.5
263 1 0.549998 0.569152 0.5
264 1 0.575 0.616553 0.5
265 1 0.600002 0.569152 0.5
266 1 0.625006 0.616554 0.5
267 1 0.650007 0.569154 0.5
268 1 0.675009 0.616557 0.5
269 1 0.700012 0.569159 0.5
270 1 0.725015 0.616563 0.5
271 1 0.750017 0.569166 0.5
272 1 0.775021 0.616572 0.5
273 1 0.800019 0.569172 0.5
274 1 0.825024 0.616578 0.5
275 1 0.850012 0.569171 0.5
276 1 0.875016 0.616577 0.5
277 1 0.900003 0.569166 0.5
278 1 0.925005 0.616571 0.5
279 1 0.949997 0.569163 0.5
280 1 0.974997 0.616565 0.5
411 3 0.500093 0.948665 0.5
302 1 0.525 0.711356 0.5
303 1 0.549997 0.663953 0.5
304 1 0.575 0.711351 0.5
305 1 0.600003 0.663953 0.5
306 1 0.625 0.711356 0.5
307 1 0.650008 0.663958 0.5
308 1 0.675005 0.711362 0.5
309 1 0.700011 0.663964 0.5
310 1 0.72501 0.711367 0.5
311 1 0.750017 0.66397 0.5
312 1 0.775016 0.711373 0.5
313 1 0.800023 0.66398 0.5
314 1 0.825022 0.711382 0.5
315 1 0.850026 0.663985 0.5
316 1 0.875024 0.711388 0.5
317 1 0.900018 0.663984 0.5
318 1 0.925017 0.711385 0.5
319 1 0.950005 0.663976 0.5
320 1 0.975005 0.711372 0.5
417 1 0.799976 0.948572 0.5
342 1 0.525012 0.806176 0.5
343 1 0.550004 0.758757 0.5
344 1 0.575 0.80618 0.5
345 1 0.599996 0.758757 0.5
346 1 0.624988 0.806176 0.5
347 1 0.649991 0.758758 0.5
348 1 0.674983 0.806173 0.5
349 1 0.699997 0.758766 0.5
350 1 0.724984 0.806181 0.5
351 1 0.750005 0.758775 0.5
352 1 0.774997 0.806184 0.5
353 1 0.800014 0.758781 0.5
354 1 0.82501 0.806192 0.5
355 1 0.85002 0.75879 0.5
356 1 0.875018 0.806203 0.5
357 1 0.900022 0.758795 0.5
358 1 0.925019 0.806206 0.5
359 1 0.950014 0.758789 0.5
360 1 0.975011 0.806195 0.5
381 3 0.500017 0.853583 0.5
382 3 0.525009 0.900994 0.5
383 3 0.550006 0.853588 0.5
384 3 0.575 0.901009 0.5
385 3 0.599994 0.853588 0.5
386 3 0.624991 0.900994 0.5
387 3 0.649983 0.853583 0.5
388 3 0.674954 0.901015 0.5
389 3 0.699968 0.853585 0.5
390 3 0.724963 0.900979 0.5
391 3 0.749978 0.853578 0.5
392 3 0.774977 0.900975 0.5
393 1 0.799993 0.853584 0.5
394 1 0.82499 0.900982 0.5
395 1 0.850007 0.853596 0.5
396 1 0.875006 0.900999 0.5
397 1 0.900018 0.853609 0.5
398 1 0.925014 0.901019 0.5
399 1 0.950015 0.853611 0.5
400 1 0.975012 0.90101 0.5
421 3 0.598452 0.999898 0.5
412 3 0.549989 0.948482 0.5
413 3 0.600011 0.948482 0.5
414 3 0.649907 0.948665 0.5
415 3 0.699951 0.948586 0.5
416 3 0.749965 0.948565 0.5
201 1 0.999998 0.474355 0.5
1 2 0.999998 0.000103676 0.5
341 1 0.500009 0.758758 0.5
41 2 0.999996 0.0951144 0.5
181 1 0.500007 0.379542 0.5
141 1 0.500006 0.284729 0.5
81 1 0.999997 0.189936 0.5
121 1 0.999998 0.284741 0.5
161 1 0.999999 0.379546 0.5
241 1 0.999995 0.569163 0.5
ITEM: TIMESTEP
78
ITEM: NUMBER OF ATOMS
421
ITEM: BOX BOUNDS pp ss pp
0.0000000000000000e+00 2.2653923264628304e+01
2.1879574711865565e-01 2.0438400035104006e+01
-2.8317404080785380e-01 2.8317404080785380e-01
ITEM: ATOMS id type xs ys zs
221 1 0.499994 0.4743 0.5
2 2 0.0249978 0.0477062 0.5
3 2 0.0499993 0.000101902 0.5
4 2 0.075 0.0477056 0.5
5 2 0.100001 0.000101902 0.5
6 2 0.125002 0.0477062 0.5
7 2 0.150002 0.000103676 0.5
8 2 0.175004 0.047708 0.5
9 2 0.200003 0.000106867 0.5
10 2 0.225005 0.0477105 0.5
11 2 0.250004 0.000110881 0.5
12 2 0.275005 0.047713 0.5
13 2 0.300004 0.000115081 0.5
14 2 0.325005 0.0477151 0.5
15 2 0.350004 0.000118937 0.5
16 2 0.375004 0.0477168 0.5
17 2 0.400004 0.00012211 0.5
18 2 0.425003 0.0477182 0.5
19 2 0.450003 0.000124453 0.5
20 2 0.475002 0.0477192 0.5
406 1 0.250069 0.948553 0.5
42 1 0.0250007 0.142515 0.5
43 2 0.0499985 0.0951144 0.5
44 1 0.0750018 0.142515 0.5
45 2 0.100002 0.0951144 0.5
46 1 0.125003 0.142516 0.5
47 2 0.150004 0.0951144 0.5
48 1 0.175003 0.142516 0.5
49 2 0.200006 0.0951145 0.5
50 1 0.225004 0.142516 0.5
51 2 0.250007 0.0951148 0.5
52 1 0.275003 0.142517 0.5
53 2 0.300006 0.0951154 0.5
54 1 0.325002 0.142517 0.5
55 2 0.350005 0.095116 0.5
56 1 0.375001 0.142517 0.5
57 2 0.400004 0.0951165 0.5
58 1 0.425001 0.142517 0.5
59 2 0.450003 0.0951169 0.5
60 1 0.475 0.142517 0.5
405 1 0.20005 0.948547 0.5
82 1 0.0250064 0.237319 0.5
83 1 0.0500037 0.189917 0.5
84 1 0.0750053 0.23732 0.5
85 1 0.100003 0.189917 0.5
86 1 0.125004 0.23732 0.5
87 1 0.150003 0.189918 0.5
88 1 0.175002 0.237321 0.5
89 1 0.200002 0.189918 0.5
90 1 0.225 0.237321 0.5
91 1 0.250001 0.189918 0.5
92 1 0.274999 0.23732 0.5
93 1 0.3 0.189918 0.5
94 1 0.324998 0.237319 0.5
95 1 0.349999 0.189918 0.5
96 1 0.374997 0.237318 0.5
97 1 0.399999 0.189917 0.5
98 1 0.424997 0.237317 0.5
99 1 0.449998 0.189917 0.5
100 1 0.474997 0.237316 0.5
404 1 0.150034 0.948543 0.5
122 1 0.0250111 0.332125 0.5
123 1 0.050008 0.284722 0.5
124 1 0.0750087 0.332127 0.5
125 1 0.100006 0.284723 0.5
126 1 0.125006 0.332128 0.5
127 1 0.150004 0.284724 0.5
128 1 0.175003 0.332128 0.5
129 1 0.200001 0.284724 0.5
130 1 0.225 0.332127 0.5
131 1 0.249999 0.284723 0.5
132 1 0.274997 0.332125 0.5
133 1 0.299997 0.284722 0.5
134 1 0.324995 0.332123 0.5
135 1 0.349996 0.28472 0.5
136 1 0.374994 0.332119 0.5
137 1 0.399995 0.284718 0.5
138 1 0.424994 0.332116 0.5
139 1 0.449995 0.284715 0.5
140 1 0.474995 0.332113 0.5
403 1 0.100019 0.948539 0.5
162 1 0.0250149 0.426932 0.5
163 1 0.0500118 0.37953 0.5
164 1 0.0750122 0.426935 0.5
165 1 0.100009 0.379532 0.5
166 1 0.125009 0.426937 0.5
167 1 0.150006 0.379532 0.5
168 1 0.175006 0.426937 0.5
169 1 0.200002 0.379532 0.5
170 1 0.225002 0.426936 0.5
171 1 0.249999 0.37953 0.5
172 1 0.274999 0.426932 0.5
173 1 0.299996 0.379527 0.5
174 1 0.324995 0.426927 0.5
175 1 0.349994 0.379522 0.5
176 1 0.374993 0.426921 0.5
177 1 0.399993 0.379517 0.5
178 1 0.424992 0.426914 0.5
179 1 0.449993 0.379513 0.5
180 1 0.474993 0.426908 0.5
410 3 0.450234 0.948592 0.5
202 1 0.0250172 0.52174 0.5
203 1 0.0500151 0.474338 0.5
204 1 0.0750154 0.521744 0.5
205 1 0.100013 0.474341 0.5
206 1 0.125014 0.521746 0.5
207 1 0.15001 0.474342 0.5
208 1 0.175011 0.521747 0.5
209 1 0.200007 0.474342 0.5
210 1 0.225008 0.521746 0.5
211 1 0.250003 0.474339 0.5
212 1 0.275004 0.521742 0.5
213 1 0.299999 0.474334 0.5
214 1 0.325 0.521734 0.5
215 1 0.349995 0.474326 0.5
216 1 0.374995 0.521724 0.5
217 1 0.399993 0.474317 0.5
218 1 0.424992 0.521712 0.5
219 1 0.449992 0.474308 0.5
220 1 0.474992 0.5217 0.5
402 1 0.0500054 0.948537 0.5
242 1 0.025017 0.616547 0.5
243 1 0.050017 0.569146 0.5
244 1 0.0750177 0.616551 0.5
245 1 0.100016 0.56915 0.5
246 1 0.125019 0.616554 0.5
247 1 0.150016 0.569152 0.5
248 1 0.175019 0.616556 0.5
249 1 0.200014 0.569152 0.5
250 1 0.225019 0.616557 0.5
251 1 0.250011 0.56915 0.5
252 1 0.275017 0.616554 0.5
253 1 0.300007 0.569144 0.5
254 1 0.325012 0.616547 0.5
255 1 0.350002 0.569134 0.5
256 1 0.375005 0.616533 0.5
257 1 0.399996 0.56912 0.5
258 1 0.424997 0.616514 0.5
259 1 0.449993 0.569104 0.5
260 1 0.474993 0.616492 0.5
409 1 0.400168 0.948577 0.5
282 1 0.0250135 0.71135 0.5
283 1 0.0500168 0.663951 0.5
284 1 0.0750183 0.711354 0.5
285 1 0.10002 0.663955 0.5
286 1 0.125024 0.711358 0.5
287 1 0.150023 0.663958 0.5
288 1 0.175029 0.711361 0.5
289 1 0.200025 0.663961 0.5
290 1 0.225034 0.711364 0.5
291 1 0.250026 0.663961 0.5
292 1 0.275037 0.711365 0.5
293 1 0.300025 0.663958 0.5
294 1 0.325037 0.711363 0.5
295 1 0.35002 0.663949 0.5
296 1 0.375031 0.711353 0.5
297 1 0.40001 0.663932 0.5
298 1 0.425018 0.711331 0.5
299 1 0.449999 0.663904 0.5
300 1 0.475 0.711289 0.5
321 1 7.47375e-06 0.758748 0.5
322 1 0.0250075 0.806147 0.5
323 1 0.0500142 0.758751 0.5
324 1 0.0750171 0.80615 0.5
325 1 0.100022 0.758755 0.5
326 1 0.125027 0.806154 0.5
327 1 0.15003 0.758759 0.5
328 1 0.175038 0.806159 0.5
329 1 0.200038 0.758763 0.5
330 1 0.225049 0.806164 0.5
331 1 0.250046 0.758767 0.5
332 1 0.275061 0.80617 0.5
333 1 0.300052 0.75877 0.5
334 1 0.325071 0.806175 0.5
335 1 0.350054 0.758769 0.5
336 1 0.375078 0.806176 0.5
337 1 0.400048 0.758759 0.5
338 1 0.425075 0.806169 0.5
339 1 0.450031 0.758731 0.5
340 1 0.475052 0.806137 0.5
408 1 0.350125 0.948567 0.5
362 1 0.0250013 0.90094 0.5
363 1 0.05001 0.853544 0.5
364 1 0.0750141 0.900942 0.5
365 1 0.100022 0.853548 0.5
366 1 0.125028 0.900946 0.5
367 1 0.150034 0.853552 0.5
368 1 0.175042 0.90095 0.5
369 1 0.200048 0.853557 0.5
370 1 0.225059 0.900956 0.5
371 1 0.250063 0.853563 0.5
372 1 0.275078 0.900963 0.5
373 1 0.300079 0.85357 0.5
374 1 0.325101 0.900971 0.5
375 1 0.350097 0.853578 0.5
376 1 0.375129 0.900981 0.5
377 1 0.400113 0.853585 0.5
378 1 0.425163 0.900995 0.5
379 3 0.450119 0.853587 0.5
380 3 0.475199 0.901015 0.5
407 1 0.300093 0.948559 0.5
261 1 0.499994 0.569089 0.5
401 1 -8.22291e-06 0.948534 0.5
361 1 -1.30954e-06 0.853542 0.5
301 1 0.499994 0.663875 0.5
21 2 0.500002 0.000125956 0.5
22 2 0.525001 0.0477198 0.5
23 2 0.550001 0.00012668 0.5
24 2 0.575 0.04772 0.5
25 2 0.599999 0.00012668 0.5
26 2 0.624999 0.0477198 0.5
27 2 0.649998 0.000125956 0.5
28 2 0.674998 0.0477192 0.5
29 2 0.699997 0.000124453 0.5
30 2 0.724997 0.0477182 0.5
31 2 0.749996 0.00012211 0.5
32 2 0.774996 0.0477168 0.5
33 2 0.799996 0.000118937 0.5
34 2 0.824995 0.0477151 0.5
35 2 0.849996 0.000115081 0.5
36 2 0.874995 0.047713 0.5
37 2 0.899996 0.000110881 0.5
38 2 0.924995 0.0477105 0.5
39 2 0.949997 0.000106867 0.5
40 2 0.974996 0.047708 0.5
61 2 0.500002 0.0951171 0.5
62 1 0.525 0.142517 0.5
63 2 0.550001 0.0951173 0.5
64 1 0.575 0.142517 0.5
65 2 0.599999 0.0951173 0.5
66 1 0.625 0.142517 0.5
67 2 0.649998 0.0951171 0.5
68 1 0.674999 0.142516 0.5
69 2 0.699997 0.0951169 0.5
70 1 0.724999 0.142516 0.5
71 2 0.749996 0.0951165 0.5
72 1 0.774999 0.142516 0.5
73 2 0.799995 0.095116 0.5
74 1 0.824999 0.142516 0.5
75 2 0.849994 0.0951154 0.5
76 1 0.874999 0.142516 0.5
77 2 0.899993 0.0951148 0.5
78 1 0.924999 0.142515 0.5
79 2 0.949994 0.0951145 0.5
80 1 0.975 0.142515 0.5
101 1 0.499999 0.189916 0.5
102 1 0.524998 0.237315 0.5
103 1 0.549999 0.189916 0.5
104 1 0.574999 0.237314 0.5
105 1 0.6 0.189916 0.5
106 1 0.625001 0.237313 0.5
107 1 0.650001 0.189915 0.5
108 1 0.675003 0.237313 0.5
109 1 0.700002 0.189915 0.5
110 1 0.725005 0.237314 0.5
111 1 0.750002 0.189915 0.5
112 1 0.775006 0.237314 0.5
113 1 0.800003 0.189915 0.5
114 1 0.825007 0.237315 0.5
115 1 0.850004 0.189916 0.5
116 1 0.875008 0.237316 0.5
117 1 0.900004 0.189916 0.5
118 1 0.925008 0.237317 0.5
119 1 0.950004 0.189916 0.5
120 1 0.975007 0.237318 0.5
420 1 0.949977 0.948532 0.5
142 1 0.524997 0.33211 0.5
143 1 0.549998 0.284712 0.5
144 1 0.574999 0.332108 0.5
145 1 0.600001 0.284711 0.5
146 1 0.625003 0.332107 0.5
147 1 0.650003 0.284711 0.5
148 1 0.675006 0.332107 0.5
149 1 0.700006 0.284711 0.5
150 1 0.72501 0.332108 0.5
151 1 0.750008 0.284712 0.5
152 1 0.775012 0.33211 0.5
153 1 0.80001 0.284713 0.5
154 1 0.825014 0.332113 0.5
155 1 0.850011 0.284715 0.5
156 1 0.875015 0.332116 0.5
157 1 0.900011 0.284717 0.5
158 1 0.925014 0.332119 0.5
159 1 0.950011 0.284719 0.5
160 1 0.975013 0.332122 0.5
419 1 0.899961 0.948531 0.5
182 1 0.524996 0.426902 0.5
183 1 0.549998 0.379505 0.5
184 1 0.575 0.426899 0.5
185 1 0.600002 0.379503 0.5
186 1 0.625005 0.426897 0.5
187 1 0.650006 0.379502 0.5
188 1 0.675011 0.426897 0.5
189 1 0.70001 0.379503 0.5
190 1 0.725015 0.426899 0.5
191 1 0.750014 0.379505 0.5
192 1 0.775018 0.426904 0.5
193 1 0.800016 0.379509 0.5
194 1 0.82502 0.426909 0.5
195 1 0.850018 0.379513 0.5
196 1 0.87502 0.426915 0.5
197 1 0.900017 0.379518 0.5
198 1 0.925019 0.426922 0.5
199 1 0.950016 0.379522 0.5
200 1 0.975017 0.426927 0.5
418 1 0.84994 0.94853 0.5
222 1 0.524996 0.521691 0.5
223 1 0.549998 0.474294 0.5
224 1 0.575002 0.521684 0.5
225 1 0.600004 0.474291 0.5
226 1 0.625009 0.521681 0.5
227 1 0.65001 0.47429 0.5
228 1 0.675016 0.521682 0.5
229 1 0.700016 0.474292 0.5
230 1 0.725022 0.521687 0.5
231 1 0.75002 0.474296 0.5
232 1 0.775025 0.521695 0.5
233 1 0.800023 0.474303 0.5
234 1 0.825026 0.521706 0.5
235 1 0.850023 0.474311 0.5
236 1 0.875024 0.521716 0.5
237 1 0.900022 0.47432 0.5
238 1 0.925022 0.521726 0.5
239 1 0.95002 0.474327 0.5
240 1 0.975019 0.521734 0.5
281 1 1.00001 0.663946 0.5
262 1 0.524996 0.616473 0.5
263 1 0.549999 0.569078 0.5
264 1 0.575004 0.616461 0.5
265 1 0.600007 0.569071 0.5
266 1 0.625015 0.616456 0.5
267 1 0.650016 0.56907 0.5
268 1 0.675025 0.616459 0.5
269 1 0.700024 0.569075 0.5
270 1 0.725031 0.61647 0.5
271 1 0.750028 0.569084 0.5
272 1 0.775032 0.616487 0.5
273 1 0.800028 0.569098 0.5
274 1 0.825027 0.616506 0.5
275 1 0.850026 0.569112 0.5
276 1 0.875022 0.616521 0.5
277 1 0.900023 0.569124 0.5
278 1 0.925019 0.616532 0.5
279 1 0.95002 0.569133 0.5
280 1 0.975017 0.616541 0.5
411 3 0.500356 0.948637 0.5
302 1 0.524995 0.711248 0.5
303 1 0.549999 0.663852 0.5
304 1 0.575005 0.711221 0.5
305 1 0.600011 0.663839 0.5
306 1 0.625024 0.711212 0.5
307 1 0.650025 0.663838 0.5
308 1 0.675039 0.711223 0.5
309 1 0.700035 0.66385 0.5
310 1 0.725041 0.711252 0.5
311 1 0.750035 0.663872 0.5
312 1 0.775027 0.71129 0.5
313 1 0.800028 0.663898 0.5
314 1 0.825016 0.711315 0.5
315 1 0.85002 0.663918 0.5
316 1 0.87501 0.71133 0.5
317 1 0.900016 0.663931 0.5
318 1 0.925008 0.711339 0.5
319 1 0.950014 0.66394 0.5
320 1 0.97501 0.711345 0.5
417 1 0.799912 0.948531 0.5
342 1 0.524992 0.806017 0.5
343 1 0.549996 0.758608 0.5
344 1 0.575002 0.805942 0.5
345 1 0.600018 0.758579 0.5
346 1 0.625045 0.805924 0.5
347 1 0.650044 0.758583 0.5
348 1 0.675068 0.805966 0.5
349 1 0.700051 0.75862 0.5
350 1 0.725016 0.806077 0.5
351 1 0.750025 0.758682 0.5
352 1 0.774991 0.806116 0.5
353 1 0.800007 0.758714 0.5
354 1 0.824984 0.806131 0.5
355 1 0.85 0.75873 0.5
356 1 0.874985 0.806138 0.5
357 1 0.899999 0.758738 0.5
358 1 0.924991 0.806141 0.5
359 1 0.950002 0.758744 0.5
360 1 0.974999 0.806144 0.5
381 3 0.500096 0.853562 0.5
382 3 0.525209 0.901045 0.5
383 3 0.549971 0.853322 0.5
384 3 0.574934 0.900497 0.5
385 3 0.600029 0.853234 0.5
386 3 0.62518 0.900427 0.5
387 3 0.650104 0.853261 0.5
388 3 0.674924 0.900931 0.5
389 3 0.699991 0.853484 0.5
390 3 0.724907 0.900938 0.5
391 3 0.74996 0.853524 0.5
392 3 0.774921 0.900939 0.5
393 1 0.799959 0.853534 0.5
394 1 0.824942 0.900937 0.5
395 1 0.849966 0.853537 0.5
396 1 0.874959 0.900936 0.5
397 1 0.899977 0.853538 0.5
398 1 0.924975 0.900936 0.5
399 1 0.949988 0.85354 0.5
400 1 0.974988 0.900938 0.5
421 3 0.598257 1.00159 0.5
412 3 0.550573 0.948881 0.5
413 3 0.60013 0.947223 0.5
414 3 0.649672 0.948687 0.5
415 3 0.699802 0.948545 0.5
416 3 0.749869 0.948536 0.5
201 1 1.00002 0.474333 0.5
1 2 0.999998 0.000103676 0.5
341 1 0.499999 0.758664 0.5
41 2 0.999996 0.0951144 0.5
181 1 0.499995 0.379508 0.5
141 1 0.499996 0.284714 0.5
81 1 1 0.189917 0.5
121 1 1.00001 0.284721 0.5
161 1 1.00001 0.379526 0.5
241 1 1.00002 0.569141 0.5
ITEM: TIMESTEP
107
ITEM: NUMBER OF ATOMS
421
ITEM: BOX BOUNDS pp ss pp
0.0000000000000000e+00 2.2653923264628304e+01
2.1879574711865565e-01 2.0472544386071498e+01
-2.8317404080785380e-01 2.8317404080785380e-01
ITEM: ATOMS id type xs ys zs
221 1 0.499999 0.473487 0.5
2 2 0.0249978 0.0476258 0.5
3 2 0.0499993 0.00010173 0.5
4 2 0.075 0.0476252 0.5
5 2 0.100001 0.00010173 0.5
6 2 0.125002 0.0476258 0.5
7 2 0.150002 0.000103501 0.5
8 2 0.175004 0.0476276 0.5
9 2 0.200003 0.000106687 0.5
10 2 0.225005 0.04763 0.5
11 2 0.250004 0.000110694 0.5
12 2 0.275005 0.0476325 0.5
13 2 0.300004 0.000114887 0.5
14 2 0.325005 0.0476347 0.5
15 2 0.350004 0.000118736 0.5
16 2 0.375004 0.0476364 0.5
17 2 0.400004 0.000121904 0.5
18 2 0.425003 0.0476377 0.5
19 2 0.450003 0.000124243 0.5
20 2 0.475002 0.0476387 0.5
406 1 0.250063 0.946932 0.5
42 1 0.0250011 0.142274 0.5
43 2 0.0499985 0.0949541 0.5
44 1 0.0750021 0.142274 0.5
45 2 0.100002 0.0949541 0.5
46 1 0.125003 0.142274 0.5
47 2 0.150004 0.0949541 0.5
48 1 0.175004 0.142274 0.5
49 2 0.200006 0.0949541 0.5
50 1 0.225004 0.142274 0.5
51 2 0.250007 0.0949545 0.5
52 1 0.275003 0.142275 0.5
53 2 0.300006 0.0949551 0.5
54 1 0.325003 0.142275 0.5
55 2 0.350005 0.0949557 0.5
56 1 0.375002 0.142275 0.5
57 2 0.400004 0.0949562 0.5
58 1 0.425002 0.142275 0.5
59 2 0.450003 0.0949565 0.5
60 1 0.475001 0.142275 0.5
405 1 0.200045 0.946931 0.5
82 1 0.0250077 0.236916 0.5
83 1 0.0500044 0.189595 0.5
84 1 0.0750062 0.236916 0.5
85 1 0.100004 0.189595 0.5
86 1 0.125005 0.236916 0.5
87 1 0.150003 0.189595 0.5
88 1 0.175003 0.236916 0.5
89 1 0.200003 0.189595 0.5
90 1 0.225001 0.236916 0.5
91 1 0.250002 0.189595 0.5
92 1 0.275 0.236915 0.5
93 1 0.300001 0.189595 0.5
94 1 0.324999 0.236914 0.5
95 1 0.35 0.189594 0.5
96 1 0.374998 0.236913 0.5
97 1 0.4 0.189594 0.5
98 1 0.424999 0.236912 0.5
99 1 0.45 0.189593 0.5
100 1 0.474999 0.236911 0.5
404 1 0.150029 0.94693 0.5
122 1 0.0250127 0.33156 0.5
123 1 0.0500093 0.284238 0.5
124 1 0.0750099 0.331561 0.5
125 1 0.100007 0.284239 0.5
126 1 0.125007 0.331562 0.5
127 1 0.150004 0.284239 0.5
128 1 0.175004 0.331561 0.5
129 1 0.200002 0.284238 0.5
130 1 0.225001 0.331559 0.5
131 1 0.25 0.284237 0.5
132 1 0.274999 0.331557 0.5
133 1 0.299998 0.284235 0.5
134 1 0.324997 0.331554 0.5
135 1 0.349997 0.284233 0.5
136 1 0.374996 0.33155 0.5
137 1 0.399997 0.284231 0.5
138 1 0.424997 0.331547 0.5
139 1 0.449998 0.284229 0.5
140 1 0.474999 0.331544 0.5
403 1 0.100015 0.946928 0.5
162 1 0.025016 0.426206 0.5
163 1 0.050013 0.378884 0.5
164 1 0.0750128 0.426208 0.5
165 1 0.10001 0.378885 0.5
166 1 0.125009 0.426209 0.5
167 1 0.150006 0.378885 0.5
168 1 0.175006 0.426207 0.5
169 1 0.200003 0.378883 0.5
170 1 0.225003 0.426204 0.5
171 1 0.25 0.37888 0.5
172 1 0.274999 0.4262 0.5
173 1 0.299998 0.378876 0.5
174 1 0.324997 0.426194 0.5
175 1 0.349996 0.378871 0.5
176 1 0.374995 0.426187 0.5
177 1 0.399996 0.378866 0.5
178 1 0.424996 0.426181 0.5
179 1 0.449997 0.378862 0.5
180 1 0.474998 0.426175 0.5
410 3 0.4502 0.946948 0.5
202 1 0.0250171 0.520853 0.5
203 1 0.0500154 0.473531 0.5
204 1 0.0750148 0.520856 0.5
205 1 0.100012 0.473533 0.5
206 1 0.125013 0.520856 0.5
207 1 0.150009 0.473532 0.5
208 1 0.17501 0.520855 0.5
209 1 0.200006 0.47353 0.5
210 1 0.225007 0.520851 0.5
211 1 0.250003 0.473525 0.5
212 1 0.275003 0.520845 0.5
213 1 0.299999 0.473519 0.5
214 1 0.325 0.520837 0.5
215 1 0.349996 0.473511 0.5
216 1 0.374996 0.520826 0.5
217 1 0.399995 0.473502 0.5
218 1 0.424995 0.520815 0.5
219 1 0.449996 0.473494 0.5
220 1 0.474996 0.520804 0.5
402 1 0.050001 0.946927 0.5
242 1 0.025015 0.6155 0.5
243 1 0.0500159 0.568178 0.5
244 1 0.0750155 0.615502 0.5
245 1 0.100015 0.56818 0.5
246 1 0.125016 0.615503 0.5
247 1 0.150014 0.56818 0.5
248 1 0.175016 0.615502 0.5
249 1 0.200012 0.568177 0.5
250 1 0.225015 0.615499 0.5
251 1 0.250009 0.568173 0.5
252 1 0.275013 0.615494 0.5
253 1 0.300005 0.568165 0.5
254 1 0.325009 0.615484 0.5
255 1 0.350001 0.568154 0.5
256 1 0.375003 0.61547 0.5
257 1 0.399996 0.56814 0.5
258 1 0.424997 0.615451 0.5
259 1 0.449995 0.568124 0.5
260 1 0.474995 0.615431 0.5
409 1 0.400146 0.946939 0.5
282 1 0.0250096 0.710143 0.5
283 1 0.0500139 0.662823 0.5
284 1 0.0750145 0.710144 0.5
285 1 0.100017 0.662825 0.5
286 1 0.125019 0.710146 0.5
287 1 0.150019 0.662825 0.5
288 1 0.175024 0.710146 0.5
289 1 0.20002 0.662824 0.5
290 1 0.225027 0.710145 0.5
291 1 0.250021 0.662821 0.5
292 1 0.27503 0.710142 0.5
293 1 0.300019 0.662815 0.5
294 1 0.325029 0.710136 0.5
295 1 0.350014 0.662804 0.5
296 1 0.375024 0.710124 0.5
297 1 0.400006 0.662785 0.5
298 1 0.425012 0.7101 0.5
299 1 0.449997 0.662758 0.5
300 1 0.474996 0.71006 0.5
321 1 2.50042e-06 0.757461 0.5
322 1 0.0250023 0.804779 0.5
323 1 0.0500097 0.757462 0.5
324 1 0.0750122 0.80478 0.5
325 1 0.100017 0.757464 0.5
326 1 0.125022 0.804782 0.5
327 1 0.150024 0.757465 0.5
328 1 0.175032 0.804783 0.5
329 1 0.200031 0.757466 0.5
330 1 0.225041 0.804784 0.5
331 1 0.250037 0.757465 0.5
332 1 0.275051 0.804785 0.5
333 1 0.300042 0.757464 0.5
334 1 0.325059 0.804785 0.5
335 1 0.350043 0.757458 0.5
336 1 0.375064 0.804782 0.5
337 1 0.400037 0.757445 0.5
338 1 0.42506 0.80477 0.5
339 1 0.450021 0.757415 0.5
340 1 0.475038 0.804735 0.5
408 1 0.350111 0.946934 0.5
362 1 0.0249959 0.899411 0.5
363 1 0.0500048 0.852095 0.5
364 1 0.0750094 0.899412 0.5
365 1 0.100017 0.852096 0.5
366 1 0.125023 0.899414 0.5
367 1 0.150028 0.852098 0.5
368 1 0.175036 0.899416 0.5
369 1 0.200041 0.8521 0.5
370 1 0.225051 0.899417 0.5
371 1 0.250054 0.852102 0.5
372 1 0.275068 0.899419 0.5
373 1 0.300068 0.852103 0.5
374 1 0.325088 0.899421 0.5
375 1 0.350082 0.852105 0.5
376 1 0.375112 0.899425 0.5
377 1 0.400095 0.852106 0.5
378 1 0.425139 0.899431 0.5
379 3 0.450098 0.8521 0.5
380 3 0.475164 0.899441 0.5
407 1 0.300085 0.946933 0.5
261 1 0.499997 0.568111 0.5
301 1 0.499994 0.662732 0.5
101 1 0.5 0.189593 0.5
241 1 1.72436e-05 0.568175 0.5
161 1 1.60061e-05 0.378882 0.5
121 1 1.13304e-05 0.284237 0.5
81 1 4.76472e-06 0.189594 0.5
141 1 0.5 0.284227 0.5
181 1 0.5 0.378858 0.5
281 1 1.16946e-05 0.66282 0.5
341 1 0.499993 0.757351 0.5
201 1 1.83566e-05 0.473528 0.5