ITEM: TIMESTEP
0
ITEM: NUMBER OF ATOMS
421
ITEM: BOX BOUNDS pp ss pp
0.0000000000000000e+00 2.2653923264628304e+01
2.1879574711865565e-01 2.0451132110740140e+01
-2.8317404080785380e-01 2.8317404080785380e-01
ITEM: ATOMS id type xs ys zs
221 1 0.499997 0.474054 0.5
2 2 0.0249978 0.0476762 0.5
3 2 0.0499993 0.000101838 0.5
4 2 0.075 0.0476756 0.5
5 2 0.100001 0.000101838 0.5
6 2 0.125002 0.0476762 0.5
7 2 0.150002 0.000103611 0.5
8 2 0.175004 0.047678 0.5
9 2 0.200003 0.0001068 0.5
10 2 0.225005 0.0476804 0.5
11 2 0.250004 0.000110811 0.5
12 2 0.275005 0.0476829 0.5
13 2 0.300004 0.000115009 0.5
14 2 0.325005 0.0476851 0.5
15 2 0.350004 0.000118862 0.5
16 2 0.375004 0.0476868 0.5
17 2 0.400004 0.000122033 0.5
18 2 0.425003 0.0476881 0.5
19 2 0.450003 0.000124375 0.5
20 2 0.475002 0.0476891 0.5
406 1 0.250001 0.94801 0.5
42 1 0.0249972 0.142434 0.5
43 2 0.0499985 0.0950546 0.5
44 1 0.075 0.142435 0.5
45 2 0.100002 0.0950546 0.5
46 1 0.125003 0.142434 0.5
47 2 0.150004 0.0950546 0.5
48 1 0.175005 0.142432 0.5
49 2 0.200006 0.0950546 0.5
50 1 0.225007 0.14243 0.5
51 2 0.250007 0.095055 0.5
52 1 0.275007 0.142429 0.5
53 2 0.300006 0.0950556 0.5
54 1 0.325007 0.142429 0.5
55 2 0.350005 0.0950562 0.5
56 1 0.375006 0.142429 0.5
57 2 0.400004 0.0950567 0.5
58 1 0.425004 0.142429 0.5
59 2 0.450003 0.095057 0.5
60 1 0.475003 0.142429 0.5
405 1 0.199986 0.948025 0.5
82 1 0.0249986 0.237193 0.5
83 1 0.049999 0.189818 0.5
84 1 0.075 0.237194 0.5
85 1 0.100001 0.189818 0.5
86 1 0.125001 0.237193 0.5
87 1 0.150003 0.189817 0.5
88 1 0.175003 0.237191 0.5
89 1 0.200005 0.189814 0.5
90 1 0.225006 0.237188 0.5
91 1 0.250007 0.189811 0.5
92 1 0.275008 0.237184 0.5
93 1 0.300008 0.189809 0.5
94 1 0.325009 0.237183 0.5
95 1 0.350007 0.189808 0.5
96 1 0.375008 0.237182 0.5
97 1 0.400006 0.189809 0.5
98 1 0.425007 0.237182 0.5
99 1 0.450004 0.189809 0.5
100 1 0.475005 0.237182 0.5
404 1 0.14998 0.947998 0.5
122 1 0.024999 0.331936 0.5
123 1 0.0499995 0.284563 0.5
124 1 0.075 0.331936 0.5
125 1 0.100001 0.284563 0.5
126 1 0.125001 0.331936 0.5
127 1 0.150002 0.284562 0.5
128 1 0.175002 0.331934 0.5
129 1 0.200004 0.284559 0.5
130 1 0.225005 0.331931 0.5
131 1 0.250006 0.284556 0.5
132 1 0.275007 0.331928 0.5
133 1 0.300009 0.284553 0.5
134 1 0.325011 0.331925 0.5
135 1 0.35001 0.284551 0.5
136 1 0.375012 0.331922 0.5
137 1 0.40001 0.28455 0.5
138 1 0.425013 0.331922 0.5
139 1 0.450008 0.284549 0.5
140 1 0.475011 0.331923 0.5
403 1 0.0999905 0.947967 0.5
162 1 0.024999 0.426685 0.5
163 1 0.0499993 0.379308 0.5
164 1 0.075 0.426686 0.5
165 1 0.100001 0.379308 0.5
166 1 0.125001 0.426685 0.5
167 1 0.150001 0.379307 0.5
168 1 0.175002 0.426684 0.5
169 1 0.200003 0.379304 0.5
170 1 0.225005 0.426682 0.5
171 1 0.250006 0.379303 0.5
172 1 0.275008 0.426679 0.5
173 1 0.300009 0.3793 0.5
174 1 0.325012 0.426677 0.5
175 1 0.350014 0.379297 0.5
176 1 0.375013 0.426675 0.5
177 1 0.400015 0.379296 0.5
178 1 0.425009 0.426679 0.5
179 1 0.450013 0.379299 0.5
180 1 0.475002 0.426682 0.5
410 3 0.450049 0.947989 0.5
202 1 0.0249985 0.521428 0.5
203 1 0.0499994 0.474057 0.5
204 1 0.075 0.521429 0.5
205 1 0.100001 0.474057 0.5
206 1 0.125002 0.521428 0.5
207 1 0.150002 0.474056 0.5
208 1 0.175004 0.521428 0.5
209 1 0.200004 0.474055 0.5
210 1 0.225005 0.521426 0.5
211 1 0.250007 0.474053 0.5
212 1 0.275002 0.521427 0.5
213 1 0.300008 0.474052 0.5
214 1 0.324995 0.52143 0.5
215 1 0.350004 0.474053 0.5
216 1 0.374989 0.521432 0.5
217 1 0.399999 0.474056 0.5
218 1 0.424989 0.521428 0.5
219 1 0.449996 0.474056 0.5
220 1 0.474993 0.521423 0.5
402 1 0.0500095 0.947967 0.5
242 1 0.0249956 0.616175 0.5
243 1 0.0499984 0.568805 0.5
244 1 0.075 0.616175 0.5
245 1 0.100002 0.568805 0.5
246 1 0.125004 0.616175 0.5
247 1 0.150005 0.568805 0.5
248 1 0.175003 0.616177 0.5
249 1 0.200003 0.568805 0.5
250 1 0.224995 0.616183 0.5
251 1 0.249997 0.568808 0.5
252 1 0.274984 0.616189 0.5
253 1 0.299988 0.568813 0.5
254 1 0.324976 0.61619 0.5
255 1 0.349981 0.568814 0.5
256 1 0.374979 0.616184 0.5
257 1 0.399983 0.568808 0.5
258 1 0.424985 0.616175 0.5
259 1 0.449988 0.568801 0.5
260 1 0.474991 0.616169 0.5
409 1 0.400035 0.947968 0.5
282 1 0.024998 0.710912 0.5
283 1 0.0499969 0.663544 0.5
284 1 0.075 0.710908 0.5
285 1 0.100003 0.663544 0.5
286 1 0.125002 0.710912 0.5
287 1 0.150003 0.663548 0.5
288 1 0.174995 0.710925 0.5
289 1 0.199995 0.663558 0.5
290 1 0.224983 0.710937 0.5
291 1 0.249982 0.663566 0.5
292 1 0.274976 0.71094 0.5
293 1 0.299974 0.663567 0.5
294 1 0.324978 0.710935 0.5
295 1 0.349977 0.663562 0.5
296 1 0.374984 0.710926 0.5
297 1 0.399983 0.663552 0.5
298 1 0.42499 0.71092 0.5
299 1 0.449989 0.663547 0.5
300 1 0.474995 0.710914 0.5
321 1 3.64377e-06 0.758295 0.5
322 1 0.025002 0.805666 0.5
323 1 0.0499996 0.75828 0.5
324 1 0.075 0.805655 0.5
325 1 0.1 0.75828 0.5
326 1 0.124998 0.805666 0.5
327 1 0.149996 0.758295 0.5
328 1 0.174989 0.805688 0.5
329 1 0.199986 0.758311 0.5
330 1 0.224981 0.805699 0.5
331 1 0.249978 0.758317 0.5
332 1 0.274982 0.805696 0.5
333 1 0.29998 0.758312 0.5
334 1 0.32499 0.805684 0.5
335 1 0.349986 0.758304 0.5
336 1 0.375003 0.805677 0.5
337 1 0.399995 0.758298 0.5
338 1 0.425016 0.805674 0.5
339 1 0.450003 0.758288 0.5
340 1 0.475017 0.805666 0.5
408 1 0.350024 0.947975 0.5
362 1 0.0250069 0.900411 0.5
363 1 0.0500014 0.853029 0.5
364 1 0.075 0.900394 0.5
365 1 0.0999986 0.853029 0.5
366 1 0.124993 0.900411 0.5
367 1 0.149994 0.853054 0.5
368 1 0.174988 0.900443 0.5
369 1 0.199985 0.853074 0.5
370 1 0.224986 0.900452 0.5
371 1 0.249982 0.853072 0.5
372 1 0.274994 0.900432 0.5
373 1 0.299993 0.853059 0.5
374 1 0.32501 0.900415 0.5
375 1 0.350007 0.853047 0.5
376 1 0.375023 0.900408 0.5
377 1 0.400022 0.853041 0.5
378 1 0.425037 0.900412 0.5
379 3 0.450032 0.853048 0.5
380 3 0.475046 0.900448 0.5
407 1 0.300014 0.947982 0.5
261 1 0.499993 0.568796 0.5
401 1 2.0232e-05 0.947998 0.5
361 1 6.38311e-06 0.853054 0.5
301 1 0.499992 0.66354 0.5
21 2 0.500002 0.000125877 0.5
22 2 0.525001 0.0476898 0.5
23 2 0.550001 0.000126601 0.5
24 2 0.575 0.04769 0.5
25 2 0.599999 0.000126601 0.5
26 2 0.624999 0.0476898 0.5
27 2 0.649998 0.000125877 0.5
28 2 0.674998 0.0476891 0.5
29 2 0.699997 0.000124375 0.5
30 2 0.724997 0.0476881 0.5
31 2 0.749996 0.000122033 0.5
32 2 0.774996 0.0476868 0.5
33 2 0.799996 0.000118862 0.5
34 2 0.824995 0.0476851 0.5
35 2 0.849996 0.000115009 0.5
36 2 0.874995 0.0476829 0.5
37 2 0.899996 0.000110811 0.5
38 2 0.924995 0.0476804 0.5
39 2 0.949997 0.0001068 0.5
40 2 0.974996 0.047678 0.5
61 2 0.500002 0.0950573 0.5
62 1 0.525001 0.142429 0.5
63 2 0.550001 0.0950574 0.5
64 1 0.575 0.142428 0.5
65 2 0.599999 0.0950574 0.5
66 1 0.624999 0.142429 0.5
67 2 0.649998 0.0950573 0.5
68 1 0.674997 0.142429 0.5
69 2 0.699997 0.095057 0.5
70 1 0.724996 0.142429 0.5
71 2 0.749996 0.0950567 0.5
72 1 0.774994 0.142429 0.5
73 2 0.799995 0.0950562 0.5
74 1 0.824993 0.142429 0.5
75 2 0.849994 0.0950556 0.5
76 1 0.874993 0.142429 0.5
77 2 0.899993 0.095055 0.5
78 1 0.924993 0.14243 0.5
79 2 0.949994 0.0950546 0.5
80 1 0.974995 0.142432 0.5
101 1 0.500002 0.189809 0.5
102 1 0.525002 0.237181 0.5
103 1 0.550001 0.189809 0.5
104 1 0.575 0.23718 0.5
105 1 0.599999 0.189809 0.5
106 1 0.624998 0.237181 0.5
107 1 0.649998 0.189809 0.5
108 1 0.674995 0.237182 0.5
109 1 0.699996 0.189809 0.5
110 1 0.724993 0.237182 0.5
111 1 0.749994 0.189809 0.5
112 1 0.774992 0.237182 0.5
113 1 0.799993 0.189808 0.5
114 1 0.824991 0.237183 0.5
115 1 0.849992 0.189809 0.5
116 1 0.874992 0.237184 0.5
117 1 0.899993 0.189811 0.5
118 1 0.924994 0.237188 0.5
119 1 0.949995 0.189814 0.5
120 1 0.974997 0.237191 0.5
420 1 0.950014 0.948025 0.5
142 1 0.525006 0.331927 0.5
143 1 0.550003 0.28455 0.5
144 1 0.575 0.331929 0.5
145 1 0.599997 0.28455 0.5
146 1 0.624994 0.331927 0.5
147 1 0.649994 0.28455 0.5
148 1 0.674989 0.331923 0.5
149 1 0.699992 0.284549 0.5
150 1 0.724987 0.331922 0.5
151 1 0.74999 0.28455 0.5
152 1 0.774988 0.331922 0.5
153 1 0.79999 0.284551 0.5
154 1 0.824989 0.331925 0.5
155 1 0.849991 0.284553 0.5
156 1 0.874993 0.331928 0.5
157 1 0.899994 0.284556 0.5
158 1 0.924995 0.331931 0.5
159 1 0.949996 0.284559 0.5
160 1 0.974998 0.331934 0.5
419 1 0.899999 0.94801 0.5
182 1 0.525001 0.426683 0.5
183 1 0.550001 0.379304 0.5
184 1 0.575 0.426682 0.5
185 1 0.599999 0.379304 0.5
186 1 0.624999 0.426683 0.5
187 1 0.649993 0.379303 0.5
188 1 0.674998 0.426682 0.5
189 1 0.699987 0.379299 0.5
190 1 0.724991 0.426679 0.5
191 1 0.749985 0.379296 0.5
192 1 0.774987 0.426675 0.5
193 1 0.799986 0.379297 0.5
194 1 0.824988 0.426677 0.5
195 1 0.849991 0.3793 0.5
196 1 0.874992 0.426679 0.5
197 1 0.899994 0.379303 0.5
198 1 0.924995 0.426682 0.5
199 1 0.949997 0.379304 0.5
200 1 0.974998 0.426684 0.5
418 1 0.849986 0.947982 0.5
222 1 0.524995 0.521419 0.5
223 1 0.549999 0.474053 0.5
224 1 0.575 0.521418 0.5
225 1 0.600001 0.474053 0.5
226 1 0.625005 0.521419 0.5
227 1 0.650003 0.474054 0.5
228 1 0.675007 0.521423 0.5
229 1 0.700004 0.474056 0.5
230 1 0.725011 0.521428 0.5
231 1 0.750001 0.474056 0.5
232 1 0.775011 0.521432 0.5
233 1 0.799996 0.474053 0.5
234 1 0.825005 0.52143 0.5
235 1 0.849992 0.474052 0.5
236 1 0.874998 0.521427 0.5
237 1 0.899993 0.474053 0.5
238 1 0.924995 0.521426 0.5
239 1 0.949996 0.474055 0.5
240 1 0.974996 0.521428 0.5
281 1 0.999997 0.663548 0.5
262 1 0.524994 0.616166 0.5
263 1 0.549998 0.568794 0.5
264 1 0.575 0.616165 0.5
265 1 0.600002 0.568794 0.5
266 1 0.625006 0.616166 0.5
267 1 0.650007 0.568796 0.5
268 1 0.675009 0.616169 0.5
269 1 0.700012 0.568801 0.5
270 1 0.725015 0.616175 0.5
271 1 0.750017 0.568808 0.5
272 1 0.775021 0.616184 0.5
273 1 0.800019 0.568814 0.5
274 1 0.825024 0.61619 0.5
275 1 0.850012 0.568813 0.5
276 1 0.875016 0.616189 0.5
277 1 0.900003 0.568808 0.5
278 1 0.925005 0.616183 0.5
279 1 0.949997 0.568805 0.5
280 1 0.974997 0.616177 0.5
411 3 0.500093 0.948068 0.5
302 1 0.525 0.710909 0.5
303 1 0.549997 0.663535 0.5
304 1 0.575 0.710904 0.5
305 1 0.600003 0.663535 0.5
306 1 0.625 0.710909 0.5
307 1 0.650008 0.66354 0.5
308 1 0.675005 0.710914 0.5
309 1 0.700011 0.663547 0.5
310 1 0.72501 0.71092 0.5
311 1 0.750017 0.663552 0.5
312 1 0.775016 0.710926 0.5
313 1 0.800023 0.663562 0.5
314 1 0.825022 0.710935 0.5
315 1 0.850026 0.663567 0.5
316 1 0.875024 0.71094 0.5
317 1 0.900018 0.663566 0.5
318 1 0.925017 0.710937 0.5
319 1 0.950005 0.663558 0.5
320 1 0.975005 0.710925 0.5
417 1 0.799976 0.947975 0.5
342 1 0.525012 0.805668 0.5
343 1 0.550004 0.758279 0.5
344 1 0.575 0.805673 0.5
345 1 0.599996 0.758279 0.5
346 1 0.624988 0.805668 0.5
347 1 0.649991 0.75828 0.5
348 1 0.674983 0.805666 0.5
349 1 0.699997 0.758288 0.5
350 1 0.724984 0.805674 0.5
351 1 0.750005 0.758298 0.5
352 1 0.774997 0.805677 0.5
353 1 0.800014 0.758304 0.5
354 1 0.82501 0.805684 0.5
355 1 0.85002 0.758312 0.5
356 1 0.875018 0.805696 0.5
357 1 0.900022 0.758317 0.5
358 1 0.925019 0.805699 0.5
359 1 0.950014 0.758311 0.5
360 1 0.975011 0.805688 0.5
381 3 0.500017 0.853046 0.5
382 3 0.525009 0.900427 0.5
383 3 0.550006 0.853051 0.5
384 3 0.575 0.900442 0.5
385 3 0.599994 0.853051 0.5
386 3 0.624991 0.900427 0.5
387 3 0.649983 0.853046 0.5
388 3 0.674954 0.900448 0.5
389 3 0.699968 0.853048 0.5
390 3 0.724963 0.900412 0.5
391 3 0.749978 0.853041 0.5
392 3 0.774977 0.900408 0.5
393 1 0.799993 0.853047 0.5
394 1 0.82499 0.900415 0.5
395 1 0.850007 0.853059 0.5
396 1 0.875006 0.900432 0.5
397 1 0.900018 0.853072 0.5
398 1 0.925014 0.900452 0.5
399 1 0.950015 0.853074 0.5
400 1 0.975012 0.900443 0.5
421 3 0.60236 0.999898 0.5
412 3 0.549989 0.947885 0.5
413 3 0.600011 0.947885 0.5
414 3 0.649907 0.948068 0.5
415 3 0.699951 0.947989 0.5
416 3 0.749965 0.947968 0.5
201 1 0.999998 0.474056 0.5
1 2 0.999998 0.000103611 0.5
341 1 0.500009 0.75828 0.5
41 2 0.999996 0.0950546 0.5
181 1 0.500007 0.379303 0.5
141 1 0.500006 0.28455 0.5
81 1 0.999997 0.189817 0.5
121 1 0.999998 0.284562 0.5
161 1 0.999999 0.379307 0.5
241 1 0.999995 0.568805 0.5
ITEM: TIMESTEP
78
ITEM: NUMBER OF ATOMS
421
ITEM: BOX BOUNDS pp ss pp
0.0000000000000000e+00 2.2653923264628304e+01
2.1879574711865565e-01 2.0451132110740140e+01
-2.8317404080785380e-01 2.8317404080785380e-01
ITEM: ATOMS id type xs ys zs
221 1 0.499983 0.473993 0.5
2 2 0.0249978 0.0476762 0.5
3 2 0.0499993 0.000101838 0.5
4 2 0.075 0.0476756 0.5
5 2 0.100001 0.000101838 0.5
6 2 0.125002 0.0476762 0.5
7 2 0.150002 0.000103611 0.5
8 2 0.175004 0.047678 0.5
9 2 0.200003 0.0001068 0.5
10 2 0.225005 0.0476804 0.5
11 2 0.250004 0.000110811 0.5
12 2 0.275005 0.0476829 0.5
13 2 0.300004 0.000115009 0.5
14 2 0.325005 0.0476851 0.5
15 2 0.350004 0.000118862 0.5
16 2 0.375004 0.0476868 0.5
17 2 0.400004 0.000122033 0.5
18 2 0.425003 0.0476881 0.5
19 2 0.450003 0.000124375 0.5
20 2 0.475002 0.0476891 0.5
406 1 0.250018 0.947933 0.5
42 1 0.0249977 0.142426 0.5
43 2 0.0499985 0.0950546 0.5
44 1 0.0749987 0.142426 0.5
45 2 0.100002 0.0950546 0.5
46 1 0.125 0.142426 0.5
47 2 0.150004 0.0950546 0.5
48 1 0.175001 0.142426 0.5
49 2 0.200006 0.0950546 0.5
50 1 0.225001 0.142426 0.5
51 2 0.250007 0.095055 0.5
52 1 0.275001 0.142426 0.5
53 2 0.300006 0.0950556 0.5
54 1 0.325001 0.142427 0.5
55 2 0.350005 0.0950562 0.5
56 1 0.375 0.142427 0.5
57 2 0.400004 0.0950567 0.5
58 1 0.425 0.142427 0.5
59 2 0.450003 0.095057 0.5
60 1 0.475 0.142427 0.5
405 1 0.200004 0.947936 0.5
82 1 0.0249976 0.237171 0.5
83 1 0.0499976 0.189798 0.5
84 1 0.074996 0.237171 0.5
85 1 0.0999972 0.189798 0.5
86 1 0.124995 0.23717 0.5
87 1 0.149997 0.189798 0.5
88 1 0.174993 0.23717 0.5
89 1 0.199997 0.189797 0.5
90 1 0.224992 0.237169 0.5
91 1 0.249996 0.189797 0.5
92 1 0.274992 0.237168 0.5
93 1 0.299996 0.189797 0.5
94 1 0.324992 0.237167 0.5
95 1 0.349996 0.189797 0.5
96 1 0.374992 0.237166 0.5
97 1 0.399996 0.189796 0.5
98 1 0.424994 0.237165 0.5
99 1 0.449997 0.189796 0.5
100 1 0.474995 0.237164 0.5
404 1 0.149991 0.947939 0.5
122 1 0.0249958 0.331919 0.5
123 1 0.0499957 0.284545 0.5
124 1 0.0749929 0.331919 0.5
125 1 0.0999934 0.284544 0.5
126 1 0.12499 0.331918 0.5
127 1 0.149991 0.284543 0.5
128 1 0.174988 0.331916 0.5
129 1 0.19999 0.284542 0.5
130 1 0.224986 0.331913 0.5
131 1 0.249989 0.28454 0.5
132 1 0.274985 0.33191 0.5
133 1 0.299988 0.284538 0.5
134 1 0.324985 0.331907 0.5
135 1 0.349988 0.284536 0.5
136 1 0.374986 0.331903 0.5
137 1 0.39999 0.284534 0.5
138 1 0.424987 0.331901 0.5
139 1 0.449991 0.284533 0.5
140 1 0.47499 0.331899 0.5
403 1 0.0999773 0.947942 0.5
162 1 0.0249921 0.426668 0.5
163 1 0.0499926 0.379293 0.5
164 1 0.0749888 0.426668 0.5
165 1 0.0999894 0.379293 0.5
166 1 0.124986 0.426666 0.5
167 1 0.149987 0.37929 0.5
168 1 0.174983 0.426663 0.5
169 1 0.199984 0.379287 0.5
170 1 0.224981 0.426658 0.5
171 1 0.249982 0.379283 0.5
172 1 0.274979 0.426652 0.5
173 1 0.299981 0.379279 0.5
174 1 0.324978 0.426646 0.5
175 1 0.349982 0.379274 0.5
176 1 0.374979 0.42664 0.5
177 1 0.399983 0.37927 0.5
178 1 0.424981 0.426634 0.5
179 1 0.449986 0.379266 0.5
180 1 0.474984 0.42663 0.5
410 3 0.450118 0.947931 0.5
202 1 0.024986 0.521419 0.5
203 1 0.0499878 0.474044 0.5
204 1 0.0749837 0.521418 0.5
205 1 0.099985 0.474042 0.5
206 1 0.124982 0.521415 0.5
207 1 0.149982 0.474039 0.5
208 1 0.17498 0.52141 0.5
209 1 0.19998 0.474034 0.5
210 1 0.224978 0.521404 0.5
211 1 0.249978 0.474028 0.5
212 1 0.274976 0.521396 0.5
213 1 0.299976 0.47402 0.5
214 1 0.324974 0.521386 0.5
215 1 0.349975 0.474012 0.5
216 1 0.374972 0.521376 0.5
217 1 0.399976 0.474004 0.5
218 1 0.424973 0.521365 0.5
219 1 0.449979 0.473997 0.5
220 1 0.474977 0.521357 0.5
402 1 0.0499628 0.947947 0.5
242 1 0.0249773 0.616169 0.5
243 1 0.0499813 0.568794 0.5
244 1 0.0749779 0.616166 0.5
245 1 0.0999804 0.568791 0.5
246 1 0.124979 0.616162 0.5
247 1 0.14998 0.568787 0.5
248 1 0.174979 0.616157 0.5
249 1 0.199979 0.568781 0.5
250 1 0.224979 0.616151 0.5
251 1 0.249977 0.568773 0.5
252 1 0.274977 0.616142 0.5
253 1 0.299974 0.568763 0.5
254 1 0.324974 0.61613 0.5
255 1 0.349971 0.568751 0.5
256 1 0.37497 0.616115 0.5
257 1 0.399969 0.568737 0.5
258 1 0.424966 0.616096 0.5
259 1 0.44997 0.568724 0.5
260 1 0.474967 0.61608 0.5
409 1 0.400078 0.947928 0.5
282 1 0.024967 0.710914 0.5
283 1 0.0499735 0.663541 0.5
284 1 0.0749723 0.71091 0.5
285 1 0.0999765 0.663537 0.5
286 1 0.124978 0.710906 0.5
287 1 0.149979 0.663532 0.5
288 1 0.174982 0.710901 0.5
289 1 0.199981 0.663527 0.5
290 1 0.224986 0.710895 0.5
291 1 0.249982 0.66352 0.5
292 1 0.274987 0.710888 0.5
293 1 0.29998 0.66351 0.5
294 1 0.324985 0.710878 0.5
295 1 0.349975 0.663496 0.5
296 1 0.374979 0.710863 0.5
297 1 0.399968 0.663477 0.5
298 1 0.424968 0.710838 0.5
299 1 0.449961 0.663451 0.5
300 1 0.474955 0.7108 0.5
321 1 -4.20161e-05 0.758287 0.5
322 1 0.0249579 0.805652 0.5
323 1 0.0499661 0.758282 0.5
324 1 0.0749687 0.805647 0.5
325 1 0.0999741 0.758277 0.5
326 1 0.124979 0.805642 0.5
327 1 0.149981 0.758272 0.5
328 1 0.174988 0.805638 0.5
329 1 0.199988 0.758268 0.5
330 1 0.224996 0.805634 0.5
331 1 0.249993 0.758263 0.5
332 1 0.275003 0.805631 0.5
333 1 0.299995 0.758257 0.5
334 1 0.325008 0.805626 0.5
335 1 0.349994 0.758247 0.5
336 1 0.375008 0.805618 0.5
337 1 0.399986 0.758231 0.5
338 1 0.425001 0.805602 0.5
339 1 0.449969 0.758198 0.5
340 1 0.474975 0.805562 0.5
408 1 0.350052 0.947929 0.5
362 1 0.0249541 0.900384 0.5
363 1 0.0499618 0.853015 0.5
364 1 0.0749687 0.900379 0.5
365 1 0.0999742 0.85301 0.5
366 1 0.124982 0.900375 0.5
367 1 0.149986 0.853006 0.5
368 1 0.174994 0.900371 0.5
369 1 0.199996 0.853003 0.5
370 1 0.225007 0.900369 0.5
371 1 0.250007 0.853 0.5
372 1 0.275019 0.900366 0.5
373 1 0.300017 0.852997 0.5
374 1 0.325033 0.900365 0.5
375 1 0.350025 0.852994 0.5
376 1 0.375049 0.900364 0.5
377 1 0.400032 0.85299 0.5
378 1 0.425066 0.900364 0.5
379 3 0.450029 0.852979 0.5
380 3 0.475079 0.900362 0.5
407 1 0.300033 0.947931 0.5
261 1 0.499975 0.568715 0.5
401 1 -5.3629e-05 0.947952 0.5
361 1 -5.1889e-05 0.853021 0.5
301 1 0.499962 0.66343 0.5
21 2 0.500002 0.000125877 0.5
22 2 0.525001 0.0476898 0.5
23 2 0.550001 0.000126601 0.5
24 2 0.575 0.04769 0.5
25 2 0.599999 0.000126601 0.5
26 2 0.624999 0.0476898 0.5
27 2 0.649998 0.000125877 0.5
28 2 0.674998 0.0476891 0.5
29 2 0.699997 0.000124375 0.5
30 2 0.724997 0.0476881 0.5
31 2 0.749996 0.000122033 0.5
32 2 0.774996 0.0476868 0.5
33 2 0.799996 0.000118862 0.5
34 2 0.824995 0.0476851 0.5
35 2 0.849996 0.000115009 0.5
36 2 0.874995 0.0476829 0.5
37 2 0.899996 0.000110811 0.5
38 2 0.924995 0.0476804 0.5
39 2 0.949997 0.0001068 0.5
40 2 0.974996 0.047678 0.5
61 2 0.500002 0.0950573 0.5
62 1 0.525 0.142427 0.5
63 2 0.550001 0.0950574 0.5
64 1 0.575 0.142427 0.5
65 2 0.599999 0.0950574 0.5
66 1 0.624999 0.142427 0.5
67 2 0.649998 0.0950573 0.5
68 1 0.674999 0.142427 0.5
69 2 0.699997 0.095057 0.5
70 1 0.724999 0.142427 0.5
71 2 0.749996 0.0950567 0.5
72 1 0.774998 0.142427 0.5
73 2 0.799995 0.0950562 0.5
74 1 0.824998 0.142427 0.5
75 2 0.849994 0.0950556 0.5
76 1 0.874997 0.142427 0.5
77 2 0.899993 0.095055 0.5
78 1 0.924997 0.142426 0.5
79 2 0.949994 0.0950546 0.5
80 1 0.974997 0.142426 0.5
101 1 0.499998 0.189796 0.5
102 1 0.524997 0.237164 0.5
103 1 0.549999 0.189796 0.5
104 1 0.574999 0.237164 0.5
105 1 0.6 0.189796 0.5
106 1 0.625 0.237165 0.5
107 1 0.65 0.189796 0.5
108 1 0.675002 0.237165 0.5
109 1 0.700001 0.189797 0.5
110 1 0.725003 0.237166 0.5
111 1 0.750001 0.189797 0.5
112 1 0.775003 0.237167 0.5
113 1 0.800001 0.189798 0.5
114 1 0.825003 0.237169 0.5
115 1 0.85 0.189798 0.5
116 1 0.875002 0.23717 0.5
117 1 0.9 0.189798 0.5
118 1 0.925001 0.23717 0.5
119 1 0.949999 0.189798 0.5
120 1 0.974999 0.237171 0.5
420 1 0.949927 0.947957 0.5
142 1 0.524993 0.331898 0.5
143 1 0.549996 0.284531 0.5
144 1 0.574997 0.331898 0.5
145 1 0.599999 0.284532 0.5
146 1 0.625 0.331899 0.5
147 1 0.650001 0.284533 0.5
148 1 0.675003 0.331901 0.5
149 1 0.700003 0.284534 0.5
150 1 0.725005 0.331904 0.5
151 1 0.750004 0.284536 0.5
152 1 0.775006 0.331907 0.5
153 1 0.800005 0.284538 0.5
154 1 0.825005 0.33191 0.5
155 1 0.850004 0.28454 0.5
156 1 0.875004 0.331913 0.5
157 1 0.900002 0.284542 0.5
158 1 0.925002 0.331916 0.5
159 1 0.95 0.284544 0.5
160 1 0.974999 0.331918 0.5
419 1 0.899902 0.947964 0.5
182 1 0.524989 0.426628 0.5
183 1 0.549994 0.379264 0.5
184 1 0.574994 0.426628 0.5
185 1 0.599998 0.379264 0.5
186 1 0.624999 0.42663 0.5
187 1 0.650002 0.379267 0.5
188 1 0.675004 0.426634 0.5
189 1 0.700005 0.37927 0.5
190 1 0.725006 0.42664 0.5
191 1 0.750006 0.379274 0.5
192 1 0.775007 0.426646 0.5
193 1 0.800006 0.379279 0.5
194 1 0.825006 0.426653 0.5
195 1 0.850005 0.379284 0.5
196 1 0.875003 0.426659 0.5
197 1 0.900003 0.379288 0.5
198 1 0.925 0.426664 0.5
199 1 0.949999 0.379291 0.5
200 1 0.974996 0.426667 0.5
418 1 0.84987 0.947973 0.5
222 1 0.524983 0.521353 0.5
223 1 0.549989 0.473991 0.5
224 1 0.57499 0.521353 0.5
225 1 0.599996 0.473992 0.5
226 1 0.624998 0.521356 0.5
227 1 0.650001 0.473996 0.5
228 1 0.675003 0.521363 0.5
229 1 0.700005 0.474003 0.5
230 1 0.725006 0.521373 0.5
231 1 0.750007 0.474011 0.5
232 1 0.775006 0.521385 0.5
233 1 0.800006 0.47402 0.5
234 1 0.825003 0.521397 0.5
235 1 0.850003 0.474029 0.5
236 1 0.874998 0.521407 0.5
237 1 0.899999 0.474036 0.5
238 1 0.924993 0.521414 0.5
239 1 0.949995 0.474041 0.5
240 1 0.974989 0.521418 0.5
281 1 0.999971 0.663544 0.5
262 1 0.524973 0.616069 0.5
263 1 0.549983 0.568711 0.5
264 1 0.574984 0.616067 0.5
265 1 0.599992 0.568713 0.5
266 1 0.624995 0.616074 0.5
267 1 0.65 0.568721 0.5
268 1 0.675003 0.616087 0.5
269 1 0.700005 0.568733 0.5
270 1 0.725005 0.616107 0.5
271 1 0.750005 0.568748 0.5
272 1 0.775 0.616129 0.5
273 1 0.800002 0.568764 0.5
274 1 0.824992 0.616148 0.5
275 1 0.849996 0.568778 0.5
276 1 0.874985 0.616161 0.5
277 1 0.89999 0.568788 0.5
278 1 0.92498 0.616167 0.5
279 1 0.949986 0.568793 0.5
280 1 0.974978 0.61617 0.5
411 3 0.50018 0.947937 0.5
302 1 0.524957 0.710772 0.5
303 1 0.549973 0.663419 0.5
304 1 0.574974 0.710764 0.5
305 1 0.599987 0.663421 0.5
306 1 0.624992 0.710775 0.5
307 1 0.649999 0.663436 0.5
308 1 0.675002 0.710804 0.5
309 1 0.700004 0.66346 0.5
310 1 0.724996 0.710846 0.5
311 1 0.749998 0.66349 0.5
312 1 0.774977 0.710887 0.5
313 1 0.799986 0.663518 0.5
314 1 0.824965 0.710909 0.5
315 1 0.849977 0.663534 0.5
316 1 0.874959 0.710918 0.5
317 1 0.899971 0.663542 0.5
318 1 0.924959 0.71092 0.5
319 1 0.94997 0.663545 0.5
320 1 0.974962 0.710918 0.5
417 1 0.799825 0.947984 0.5
342 1 0.524924 0.805452 0.5
343 1 0.549952 0.758102 0.5
344 1 0.57495 0.805414 0.5
345 1 0.599979 0.758102 0.5
346 1 0.624994 0.805438 0.5
347 1 0.65 0.758134 0.5
348 1 0.675002 0.805517 0.5
349 1 0.699996 0.758192 0.5
350 1 0.72494 0.805638 0.5
351 1 0.749964 0.758259 0.5
352 1 0.774918 0.805668 0.5
353 1 0.799946 0.758286 0.5
354 1 0.824917 0.805673 0.5
355 1 0.849942 0.758295 0.5
356 1 0.874924 0.80567 0.5
357 1 0.899944 0.758295 0.5
358 1 0.924935 0.805664 0.5
359 1 0.94995 0.758292 0.5
360 1 0.974947 0.805658 0.5
381 3 0.499998 0.852936 0.5
382 3 0.525058 0.900349 0.5
383 3 0.549886 0.852715 0.5
384 3 0.574805 0.899849 0.5
385 3 0.599965 0.852698 0.5
386 3 0.625052 0.899941 0.5
387 3 0.65002 0.852794 0.5
388 3 0.674774 0.900496 0.5
389 3 0.699894 0.853037 0.5
390 3 0.724789 0.900458 0.5
391 3 0.749873 0.853057 0.5
392 3 0.774831 0.900432 0.5
393 1 0.799881 0.853052 0.5
394 1 0.824865 0.900418 0.5
395 1 0.849898 0.853044 0.5
396 1 0.874894 0.900407 0.5
397 1 0.899916 0.853036 0.5
398 1 0.924918 0.900398 0.5
399 1 0.949933 0.853028 0.5
400 1 0.974937 0.90039 0.5
421 3 0.602278 1.00092 0.5
412 3 0.550296 0.948064 0.5
413 3 0.599833 0.946622 0.5
414 3 0.649392 0.948318 0.5
415 3 0.699626 0.948052 0.5
416 3 0.749756 0.948 0.5
201 1 0.999991 0.474043 0.5
1 2 0.999998 0.000103611 0.5
341 1 0.499944 0.758137 0.5
41 2 0.999996 0.0950546 0.5
181 1 0.499989 0.379264 0.5
141 1 0.499994 0.284532 0.5
81 1 0.999998 0.189798 0.5
121 1 0.999998 0.284544 0.5
161 1 0.999996 0.379293 0.5
241 1 0.999983 0.568794 0.5
ITEM: TIMESTEP
107
ITEM: NUMBER OF ATOMS
421
ITEM: BOX BOUNDS pp ss pp
0.0000000000000000e+00 2.2653923264628304e+01
2.1879574711865565e-01 2.0471753869972162e+01
-2.8317404080785380e-01 2.8317404080785380e-01
ITEM: ATOMS id type xs ys zs
221 1 0.499977 0.473499 0.5
2 2 0.0249978 0.0476277 0.5
3 2 0.0499993 0.000101734 0.5
4 2 0.075 0.047627 0.5
5 2 0.100001 0.000101734 0.5
6 2 0.125002 0.0476277 0.5
7 2 0.150002 0.000103505 0.5
8 2 0.175004 0.0476295 0.5
9 2 0.200003 0.000106691 0.5
10 2 0.225005 0.0476319 0.5
11 2 0.250004 0.000110699 0.5
12 2 0.275005 0.0476344 0.5
13 2 0.300004 0.000114891 0.5
14 2 0.325005 0.0476365 0.5
15 2 0.350004 0.000118741 0.5
16 2 0.375004 0.0476383 0.5
17 2 0.400004 0.000121909 0.5
18 2 0.425003 0.0476396 0.5
19 2 0.450003 0.000124248 0.5
20 2 0.475002 0.0476406 0.5
406 1 0.250011 0.946953 0.5
42 1 0.0249969 0.14228 0.5
43 2 0.0499985 0.0949578 0.5
44 1 0.0749979 0.142279 0.5
45 2 0.100002 0.0949578 0.5
46 1 0.124999 0.142279 0.5
47 2 0.150004 0.0949578 0.5
48 1 0.175 0.142279 0.5
49 2 0.200006 0.0949579 0.5
50 1 0.225 0.14228 0.5
51 2 0.250007 0.0949582 0.5
52 1 0.275 0.14228 0.5
53 2 0.300006 0.0949588 0.5
54 1 0.325 0.14228 0.5
55 2 0.350005 0.0949594 0.5
56 1 0.374999 0.14228 0.5
57 2 0.400004 0.0949599 0.5
58 1 0.424999 0.14228 0.5
59 2 0.450003 0.0949602 0.5
60 1 0.474999 0.142281 0.5
405 1 0.199997 0.946957 0.5
82 1 0.0249952 0.236926 0.5
83 1 0.049996 0.189602 0.5
84 1 0.0749935 0.236926 0.5
85 1 0.0999955 0.189602 0.5
86 1 0.124992 0.236925 0.5
87 1 0.149995 0.189602 0.5
88 1 0.174991 0.236925 0.5
89 1 0.199995 0.189602 0.5
90 1 0.22499 0.236924 0.5
91 1 0.249994 0.189601 0.5
92 1 0.274989 0.236923 0.5
93 1 0.299994 0.189601 0.5
94 1 0.324989 0.236922 0.5
95 1 0.349994 0.189601 0.5
96 1 0.37499 0.23692 0.5
97 1 0.399994 0.1896 0.5
98 1 0.424991 0.236919 0.5
99 1 0.449995 0.1896 0.5
100 1 0.474992 0.236919 0.5
404 1 0.149983 0.94696 0.5
122 1 0.024992 0.331575 0.5
123 1 0.0499925 0.28425 0.5
124 1 0.0749888 0.331575 0.5
125 1 0.09999 0.28425 0.5
126 1 0.124986 0.331574 0.5
127 1 0.149988 0.284249 0.5
128 1 0.174983 0.331572 0.5
129 1 0.199986 0.284247 0.5
130 1 0.224981 0.331569 0.5
131 1 0.249985 0.284245 0.5
132 1 0.27498 0.331566 0.5
133 1 0.299984 0.284243 0.5
134 1 0.32498 0.331562 0.5
135 1 0.349985 0.284241 0.5
136 1 0.374981 0.331559 0.5
137 1 0.399986 0.284239 0.5
138 1 0.424983 0.331556 0.5
139 1 0.449988 0.284237 0.5
140 1 0.474986 0.331554 0.5
403 1 0.0999694 0.946964 0.5
162 1 0.0249869 0.426226 0.5
163 1 0.0499879 0.3789 0.5
164 1 0.0749833 0.426226 0.5
165 1 0.0999845 0.378899 0.5
166 1 0.12498 0.426224 0.5
167 1 0.149981 0.378897 0.5
168 1 0.174977 0.42622 0.5
169 1 0.199979 0.378894 0.5
170 1 0.224975 0.426215 0.5
171 1 0.249977 0.37889 0.5
172 1 0.274973 0.426209 0.5
173 1 0.299976 0.378885 0.5
174 1 0.324972 0.426203 0.5
175 1 0.349976 0.37888 0.5
176 1 0.374973 0.426196 0.5
177 1 0.399978 0.378876 0.5
178 1 0.424975 0.426191 0.5
179 1 0.449981 0.378872 0.5
180 1 0.474979 0.426187 0.5
410 3 0.450109 0.946941 0.5
202 1 0.0249797 0.520879 0.5
203 1 0.0499819 0.473552 0.5
204 1 0.0749771 0.520878 0.5
205 1 0.0999788 0.473551 0.5
206 1 0.124975 0.520875 0.5
207 1 0.149976 0.473547 0.5
208 1 0.174973 0.52087 0.5
209 1 0.199974 0.473542 0.5
210 1 0.224971 0.520863 0.5
211 1 0.249971 0.473536 0.5
212 1 0.274968 0.520855 0.5
213 1 0.299969 0.473528 0.5
214 1 0.324966 0.520845 0.5
215 1 0.349969 0.473519 0.5
216 1 0.374965 0.520833 0.5
217 1 0.399969 0.473511 0.5
218 1 0.424966 0.520823 0.5
219 1 0.449972 0.473504 0.5
220 1 0.47497 0.520815 0.5
402 1 0.0499546 0.946968 0.5
242 1 0.0249701 0.615531 0.5
243 1 0.0499744 0.568204 0.5
244 1 0.0749705 0.615528 0.5
245 1 0.0999733 0.568202 0.5
246 1 0.124971 0.615524 0.5
247 1 0.149972 0.568197 0.5
248 1 0.174972 0.615519 0.5
249 1 0.199971 0.568191 0.5
250 1 0.224971 0.615512 0.5
251 1 0.249969 0.568183 0.5
252 1 0.274969 0.615502 0.5
253 1 0.299967 0.568173 0.5
254 1 0.324966 0.61549 0.5
255 1 0.349964 0.56816 0.5
256 1 0.374962 0.615474 0.5
257 1 0.399962 0.568146 0.5
258 1 0.424959 0.615455 0.5
259 1 0.449963 0.568132 0.5
260 1 0.47496 0.615438 0.5
409 1 0.400071 0.946942 0.5
282 1 0.0249592 0.710179 0.5
283 1 0.0499659 0.662854 0.5
284 1 0.0749644 0.710174 0.5
285 1 0.0999687 0.66285 0.5
286 1 0.12497 0.71017 0.5
287 1 0.149971 0.662845 0.5
288 1 0.174974 0.710165 0.5
289 1 0.199973 0.662839 0.5
290 1 0.224977 0.710159 0.5
291 1 0.249973 0.662831 0.5
292 1 0.274978 0.710151 0.5
293 1 0.299972 0.662821 0.5
294 1 0.324977 0.71014 0.5
295 1 0.349967 0.662806 0.5
296 1 0.374971 0.710123 0.5
297 1 0.399961 0.662786 0.5
298 1 0.42496 0.710097 0.5
299 1 0.449955 0.66276 0.5
300 1 0.474949 0.710059 0.5
301 1 0.499957 0.662739 0.5
322 1 0.0249499 0.804819 0.5
323 1 0.0499581 0.757498 0.5
324 1 0.0749606 0.804814 0.5
325 1 0.099966 0.757493 0.5
326 1 0.124971 0.804809 0.5
327 1 0.149973 0.757488 0.5
328 1 0.17498 0.804805 0.5
329 1 0.19998 0.757483 0.5
330 1 0.224988 0.8048 0.5
331 1 0.249984 0.757477 0.5
332 1 0.274995 0.804795 0.5
333 1 0.299987 0.75747 0.5
334 1 0.325 0.804789 0.5
335 1 0.349986 0.757459 0.5
336 1 0.375 0.804779 0.5
337 1 0.399978 0.757441 0.5
338 1 0.424993 0.804761 0.5
339 1 0.449962 0.757407 0.5
340 1 0.474968 0.804718 0.5
408 1 0.350046 0.946945 0.5
362 1 0.0249458 0.899454 0.5
363 1 0.0499536 0.852134 0.5
364 1 0.0749605 0.899449 0.5
365 1 0.0999661 0.852129 0.5
366 1 0.124974 0.899445 0.5
367 1 0.149978 0.852125 0.5
368 1 0.174987 0.899441 0.5
369 1 0.199989 0.852121 0.5
370 1 0.224999 0.899438 0.5
371 1 0.249999 0.852117 0.5
372 1 0.275012 0.899434 0.5
373 1 0.300009 0.852113 0.5
374 1 0.325026 0.899431 0.5
375 1 0.350018 0.852108 0.5
376 1 0.375041 0.899427 0.5
377 1 0.400024 0.852101 0.5
378 1 0.425058 0.899424 0.5
379 3 0.450022 0.852086 0.5
380 3 0.475069 0.899417 0.5
407 1 0.300027 0.946949 0.5
261 1 0.499969 0.568123 0.5
101 1 0.499996 0.1896 0.5
381 3 0.49999 0.85204 0.5
341 1 0.499939 0.757346 0.5
181 1 0.499984 0.37887 0.5
141 1 0.49999 0.284237 0.5
21 2 0.500002 0.000125749 0.5
22 2 0.525001 0.0476412 0.5
23 2 0.550001 0.000126472 0.5
24 2 0.575 0.0476414 0.5
25 2 0.599999 0.000126472 0.5
26 2 0.624999 0.0476412 0.5