ITEM: TIMESTEP
0
ITEM: NUMBER OF ATOMS
421
ITEM: BOX BOUNDS pp ss pp
0.0000000000000000e+00 2.2653923264628304e+01
2.1879574711865565e-01 2.0387471732559472e+01
-2.8317404080785380e-01 2.8317404080785380e-01
ITEM: ATOMS id type xs ys zs
221 1 0.499997 0.47555 0.5
2 2 0.0249978 0.0478267 0.5
3 2 0.0499993 0.000102159 0.5
4 2 0.075 0.047826 0.5
5 2 0.100001 0.000102159 0.5
6 2 0.125002 0.0478267 0.5
7 2 0.150002 0.000103938 0.5
8 2 0.175004 0.0478285 0.5
9 2 0.200003 0.000107137 0.5
10 2 0.225005 0.0478309 0.5
11 2 0.250004 0.000111161 0.5
12 2 0.275005 0.0478334 0.5
13 2 0.300004 0.000115372 0.5
14 2 0.325005 0.0478356 0.5
15 2 0.350004 0.000119237 0.5
16 2 0.375004 0.0478373 0.5
17 2 0.400004 0.000122418 0.5
18 2 0.425003 0.0478387 0.5
19 2 0.450003 0.000124767 0.5
20 2 0.475002 0.0478396 0.5
406 1 0.250001 0.951003 0.5
42 1 0.0249972 0.142883 0.5
43 2 0.0499985 0.0953546 0.5
44 1 0.075 0.142884 0.5
45 2 0.100002 0.0953546 0.5
46 1 0.125003 0.142883 0.5
47 2 0.150004 0.0953546 0.5
48 1 0.175005 0.142882 0.5
49 2 0.200006 0.0953547 0.5
50 1 0.225007 0.14288 0.5
51 2 0.250007 0.095355 0.5
52 1 0.275007 0.142879 0.5
53 2 0.300006 0.0953556 0.5
54 1 0.325007 0.142879 0.5
55 2 0.350005 0.0953562 0.5
56 1 0.375006 0.142879 0.5
57 2 0.400004 0.0953567 0.5
58 1 0.425004 0.142879 0.5
59 2 0.450003 0.0953571 0.5
60 1 0.475003 0.142878 0.5
405 1 0.199986 0.951017 0.5
82 1 0.0249986 0.237942 0.5
83 1 0.049999 0.190418 0.5
84 1 0.075 0.237943 0.5
85 1 0.100001 0.190418 0.5
86 1 0.125001 0.237942 0.5
87 1 0.150003 0.190416 0.5
88 1 0.175003 0.23794 0.5
89 1 0.200005 0.190413 0.5
90 1 0.225006 0.237937 0.5
91 1 0.250007 0.19041 0.5
92 1 0.275008 0.237933 0.5
93 1 0.300008 0.190408 0.5
94 1 0.325009 0.237931 0.5
95 1 0.350007 0.190408 0.5
96 1 0.375008 0.23793 0.5
97 1 0.400006 0.190408 0.5
98 1 0.425007 0.23793 0.5
99 1 0.450004 0.190408 0.5
100 1 0.475005 0.23793 0.5
404 1 0.14998 0.950991 0.5
122 1 0.024999 0.332983 0.5
123 1 0.0499995 0.285461 0.5
124 1 0.075 0.332984 0.5
125 1 0.100001 0.285461 0.5
126 1 0.125001 0.332983 0.5
127 1 0.150002 0.28546 0.5
128 1 0.175002 0.332981 0.5
129 1 0.200004 0.285457 0.5
130 1 0.225005 0.332979 0.5
131 1 0.250006 0.285455 0.5
132 1 0.275007 0.332976 0.5
133 1 0.300009 0.285451 0.5
134 1 0.325011 0.332973 0.5
135 1 0.35001 0.285449 0.5
136 1 0.375012 0.33297 0.5
137 1 0.40001 0.285448 0.5
138 1 0.425013 0.33297 0.5
139 1 0.450008 0.285447 0.5
140 1 0.475011 0.332971 0.5
403 1 0.0999905 0.950959 0.5
162 1 0.024999 0.428031 0.5
163 1 0.0499993 0.380505 0.5
164 1 0.075 0.428032 0.5
165 1 0.100001 0.380505 0.5
166 1 0.125001 0.428031 0.5
167 1 0.150001 0.380504 0.5
168 1 0.175002 0.42803 0.5
169 1 0.200003 0.380502 0.5
170 1 0.225005 0.428028 0.5
171 1 0.250006 0.3805 0.5
172 1 0.275008 0.428026 0.5
173 1 0.300009 0.380497 0.5
174 1 0.325012 0.428023 0.5
175 1 0.350014 0.380495 0.5
176 1 0.375013 0.428022 0.5
177 1 0.400015 0.380494 0.5
178 1 0.425009 0.428026 0.5
179 1 0.450013 0.380496 0.5
180 1 0.475002 0.428029 0.5
410 3 0.450049 0.950981 0.5
202 1 0.0249985 0.523074 0.5
203 1 0.0499994 0.475553 0.5
204 1 0.075 0.523075 0.5
205 1 0.100001 0.475553 0.5
206 1 0.125002 0.523074 0.5
207 1 0.150002 0.475552 0.5
208 1 0.175004 0.523074 0.5
209 1 0.200004 0.475552 0.5
210 1 0.225005 0.523072 0.5
211 1 0.250007 0.475549 0.5
212 1 0.275002 0.523072 0.5
213 1 0.300008 0.475548 0.5
214 1 0.324995 0.523076 0.5
215 1 0.350004 0.475549 0.5
216 1 0.374989 0.523078 0.5
217 1 0.399999 0.475552 0.5
218 1 0.424989 0.523074 0.5
219 1 0.449996 0.475553 0.5
220 1 0.474993 0.523069 0.5
402 1 0.0500095 0.950959 0.5
242 1 0.0249956 0.61812 0.5
243 1 0.0499984 0.5706 0.5
244 1 0.075 0.61812 0.5
245 1 0.100002 0.5706 0.5
246 1 0.125004 0.61812 0.5
247 1 0.150005 0.5706 0.5
248 1 0.175003 0.618122 0.5
249 1 0.200003 0.5706 0.5
250 1 0.224995 0.618128 0.5
251 1 0.249997 0.570603 0.5
252 1 0.274984 0.618134 0.5
253 1 0.299988 0.570609 0.5
254 1 0.324976 0.618135 0.5
255 1 0.349981 0.570609 0.5
256 1 0.374979 0.618129 0.5
257 1 0.399983 0.570604 0.5
258 1 0.424985 0.61812 0.5
259 1 0.449988 0.570596 0.5
260 1 0.474991 0.618114 0.5
409 1 0.400035 0.95096 0.5
282 1 0.024998 0.713156 0.5
283 1 0.0499969 0.665639 0.5
284 1 0.075 0.713152 0.5
285 1 0.100003 0.665639 0.5
286 1 0.125002 0.713156 0.5
287 1 0.150003 0.665642 0.5
288 1 0.174995 0.713169 0.5
289 1 0.199995 0.665652 0.5
290 1 0.224983 0.713181 0.5
291 1 0.249982 0.665661 0.5
292 1 0.274976 0.713184 0.5
293 1 0.299974 0.665662 0.5
294 1 0.324978 0.713179 0.5
295 1 0.349977 0.665657 0.5
296 1 0.374984 0.71317 0.5
297 1 0.399983 0.665647 0.5
298 1 0.42499 0.713164 0.5
299 1 0.449989 0.665641 0.5
300 1 0.474995 0.713158 0.5
321 1 3.64377e-06 0.760688 0.5
322 1 0.025002 0.808209 0.5
323 1 0.0499996 0.760673 0.5
324 1 0.075 0.808198 0.5
325 1 0.1 0.760673 0.5
326 1 0.124998 0.808209 0.5
327 1 0.149996 0.760688 0.5
328 1 0.174989 0.808231 0.5
329 1 0.199986 0.760705 0.5
330 1 0.224981 0.808242 0.5
331 1 0.249978 0.760711 0.5
332 1 0.274982 0.808239 0.5
333 1 0.29998 0.760706 0.5
334 1 0.32499 0.808227 0.5
335 1 0.349986 0.760697 0.5
336 1 0.375003 0.80822 0.5
337 1 0.399995 0.760691 0.5
338 1 0.425016 0.808217 0.5
339 1 0.450003 0.760682 0.5
340 1 0.475017 0.808209 0.5
408 1 0.350024 0.950967 0.5
362 1 0.0250069 0.903253 0.5
363 1 0.0500014 0.855722 0.5
364 1 0.075 0.903236 0.5
365 1 0.0999986 0.855722 0.5
366 1 0.124993 0.903253 0.5
367 1 0.149994 0.855747 0.5
368 1 0.174988 0.903285 0.5
369 1 0.199985 0.855767 0.5
370 1 0.224986 0.903294 0.5
371 1 0.249982 0.855765 0.5
372 1 0.274994 0.903274 0.5
373 1 0.299993 0.855752 0.5
374 1 0.32501 0.903257 0.5
375 1 0.350007 0.85574 0.5
376 1 0.375023 0.90325 0.5
377 1 0.400022 0.855734 0.5
378 1 0.425037 0.903254 0.5
379 3 0.450032 0.855741 0.5
380 3 0.475046 0.90329 0.5
407 1 0.300014 0.950974 0.5
261 1 0.499993 0.570591 0.5
401 1 2.0232e-05 0.950991 0.5
361 1 6.38311e-06 0.855747 0.5
301 1 0.499992 0.665635 0.5
21 2 0.500002 0.000126274 0.5
22 2 0.525001 0.0478403 0.5
23 2 0.550001 0.000127 0.5
24 2 0.575 0.0478405 0.5
25 2 0.599999 0.000127 0.5
26 2 0.624999 0.0478403 0.5
27 2 0.649998 0.000126274 0.5
28 2 0.674998 0.0478396 0.5
29 2 0.699997 0.000124767 0.5
30 2 0.724997 0.0478387 0.5
31 2 0.749996 0.000122418 0.5
32 2 0.774996 0.0478373 0.5
33 2 0.799996 0.000119237 0.5
34 2 0.824995 0.0478356 0.5
35 2 0.849996 0.000115372 0.5
36 2 0.874995 0.0478334 0.5
37 2 0.899996 0.000111161 0.5
38 2 0.924995 0.0478309 0.5
39 2 0.949997 0.000107137 0.5
40 2 0.974996 0.0478285 0.5
61 2 0.500002 0.0953573 0.5
62 1 0.525001 0.142878 0.5
63 2 0.550001 0.0953575 0.5
64 1 0.575 0.142878 0.5
65 2 0.599999 0.0953575 0.5
66 1 0.624999 0.142878 0.5
67 2 0.649998 0.0953573 0.5
68 1 0.674997 0.142878 0.5
69 2 0.699997 0.0953571 0.5
70 1 0.724996 0.142879 0.5
71 2 0.749996 0.0953567 0.5
72 1 0.774994 0.142879 0.5
73 2 0.799995 0.0953562 0.5
74 1 0.824993 0.142879 0.5
75 2 0.849994 0.0953556 0.5
76 1 0.874993 0.142879 0.5
77 2 0.899993 0.095355 0.5
78 1 0.924993 0.14288 0.5
79 2 0.949994 0.0953547 0.5
80 1 0.974995 0.142882 0.5
101 1 0.500002 0.190408 0.5
102 1 0.525002 0.237929 0.5
103 1 0.550001 0.190408 0.5
104 1 0.575 0.237929 0.5
105 1 0.599999 0.190408 0.5
106 1 0.624998 0.237929 0.5
107 1 0.649998 0.190408 0.5
108 1 0.674995 0.23793 0.5
109 1 0.699996 0.190408 0.5
110 1 0.724993 0.23793 0.5
111 1 0.749994 0.190408 0.5
112 1 0.774992 0.23793 0.5
113 1 0.799993 0.190408 0.5
114 1 0.824991 0.237931 0.5
115 1 0.849992 0.190408 0.5
116 1 0.874992 0.237933 0.5
117 1 0.899993 0.19041 0.5
118 1 0.924994 0.237937 0.5
119 1 0.949995 0.190413 0.5
120 1 0.974997 0.23794 0.5
420 1 0.950014 0.951017 0.5
142 1 0.525006 0.332974 0.5
143 1 0.550003 0.285448 0.5
144 1 0.575 0.332977 0.5
145 1 0.599997 0.285448 0.5
146 1 0.624994 0.332974 0.5
147 1 0.649994 0.285448 0.5
148 1 0.674989 0.332971 0.5
149 1 0.699992 0.285447 0.5
150 1 0.724987 0.33297 0.5
151 1 0.74999 0.285448 0.5
152 1 0.774988 0.33297 0.5
153 1 0.79999 0.285449 0.5
154 1 0.824989 0.332973 0.5
155 1 0.849991 0.285451 0.5
156 1 0.874993 0.332976 0.5
157 1 0.899994 0.285455 0.5
158 1 0.924995 0.332979 0.5
159 1 0.949996 0.285457 0.5
160 1 0.974998 0.332981 0.5
419 1 0.899999 0.951003 0.5
182 1 0.525001 0.428029 0.5
183 1 0.550001 0.380501 0.5
184 1 0.575 0.428029 0.5
185 1 0.599999 0.380501 0.5
186 1 0.624999 0.428029 0.5
187 1 0.649993 0.380501 0.5
188 1 0.674998 0.428029 0.5
189 1 0.699987 0.380496 0.5
190 1 0.724991 0.428026 0.5
191 1 0.749985 0.380494 0.5
192 1 0.774987 0.428022 0.5
193 1 0.799986 0.380495 0.5
194 1 0.824988 0.428023 0.5
195 1 0.849991 0.380497 0.5
196 1 0.874992 0.428026 0.5
197 1 0.899994 0.3805 0.5
198 1 0.924995 0.428028 0.5
199 1 0.949997 0.380502 0.5
200 1 0.974998 0.42803 0.5
418 1 0.849986 0.950974 0.5
222 1 0.524995 0.523065 0.5
223 1 0.549999 0.47555 0.5
224 1 0.575 0.523064 0.5
225 1 0.600001 0.47555 0.5
226 1 0.625005 0.523065 0.5
227 1 0.650003 0.47555 0.5
228 1 0.675007 0.523069 0.5
229 1 0.700004 0.475553 0.5
230 1 0.725011 0.523074 0.5
231 1 0.750001 0.475552 0.5
232 1 0.775011 0.523078 0.5
233 1 0.799996 0.475549 0.5
234 1 0.825005 0.523076 0.5
235 1 0.849992 0.475548 0.5
236 1 0.874998 0.523072 0.5
237 1 0.899993 0.475549 0.5
238 1 0.924995 0.523072 0.5
239 1 0.949996 0.475552 0.5
240 1 0.974996 0.523074 0.5
281 1 0.999997 0.665642 0.5
262 1 0.524994 0.618111 0.5
263 1 0.549998 0.570589 0.5
264 1 0.575 0.61811 0.5
265 1 0.600002 0.570589 0.5
266 1 0.625006 0.618111 0.5
267 1 0.650007 0.570591 0.5
268 1 0.675009 0.618114 0.5
269 1 0.700012 0.570596 0.5
270 1 0.725015 0.61812 0.5
271 1 0.750017 0.570604 0.5
272 1 0.775021 0.618129 0.5
273 1 0.800019 0.570609 0.5
274 1 0.825024 0.618135 0.5
275 1 0.850012 0.570609 0.5
276 1 0.875016 0.618134 0.5
277 1 0.900003 0.570603 0.5
278 1 0.925005 0.618128 0.5
279 1 0.949997 0.5706 0.5
280 1 0.974997 0.618122 0.5
411 3 0.500093 0.95106 0.5
302 1 0.525 0.713153 0.5
303 1 0.549997 0.665629 0.5
304 1 0.575 0.713148 0.5
305 1 0.600003 0.665629 0.5
306 1 0.625 0.713153 0.5
307 1 0.650008 0.665635 0.5
308 1 0.675005 0.713158 0.5
309 1 0.700011 0.665641 0.5
310 1 0.72501 0.713164 0.5
311 1 0.750017 0.665647 0.5
312 1 0.775016 0.71317 0.5
313 1 0.800023 0.665657 0.5
314 1 0.825022 0.713179 0.5
315 1 0.850026 0.665662 0.5
316 1 0.875024 0.713184 0.5
317 1 0.900018 0.665661 0.5
318 1 0.925017 0.713181 0.5
319 1 0.950005 0.665652 0.5
320 1 0.975005 0.713169 0.5
417 1 0.799976 0.950967 0.5
342 1 0.525012 0.808211 0.5
343 1 0.550004 0.760672 0.5
344 1 0.575 0.808216 0.5
345 1 0.599996 0.760672 0.5
346 1 0.624988 0.808211 0.5
347 1 0.649991 0.760674 0.5
348 1 0.674983 0.808209 0.5
349 1 0.699997 0.760682 0.5
350 1 0.724984 0.808217 0.5
351 1 0.750005 0.760691 0.5
352 1 0.774997 0.80822 0.5
353 1 0.800014 0.760697 0.5
354 1 0.82501 0.808227 0.5
355 1 0.85002 0.760706 0.5
356 1 0.875018 0.808239 0.5
357 1 0.900022 0.760711 0.5
358 1 0.925019 0.808242 0.5
359 1 0.950014 0.760705 0.5
360 1 0.975011 0.808231 0.5
381 3 0.500017 0.855738 0.5
382 3 0.525009 0.903269 0.5
383 3 0.550006 0.855743 0.5
384 3 0.575 0.903285 0.5
385 3 0.599994 0.855743 0.5
386 3 0.624991 0.903269 0.5
387 3 0.649983 0.855738 0.5
388 3 0.674954 0.90329 0.5
389 3 0.699968 0.855741 0.5
390 3 0.724963 0.903254 0.5
391 3 0.749978 0.855734 0.5
392 3 0.774977 0.90325 0.5
393 1 0.799993 0.85574 0.5
394 1 0.82499 0.903257 0.5
395 1 0.850007 0.855752 0.5
396 1 0.875006 0.903274 0.5
397 1 0.900018 0.855765 0.5
398 1 0.925014 0.903294 0.5
399 1 0.950015 0.855767 0.5
400 1 0.975012 0.903285 0.5
421 3 0.582817 0.999898 0.5
412 3 0.549989 0.950877 0.5
413 3 0.600011 0.950877 0.5
414 3 0.649907 0.95106 0.5
415 3 0.699951 0.950981 0.5
416 3 0.749965 0.95096 0.5
201 1 0.999998 0.475552 0.5
1 2 0.999998 0.000103938 0.5
341 1 0.500009 0.760674 0.5
41 2 0.999996 0.0953546 0.5
181 1 0.500007 0.380501 0.5
141 1 0.500006 0.285448 0.5
81 1 0.999997 0.190416 0.5
121 1 0.999998 0.28546 0.5
161 1 0.999999 0.380504 0.5
241 1 0.999995 0.5706 0.5
ITEM: TIMESTEP
78
ITEM: NUMBER OF ATOMS
421
ITEM: BOX BOUNDS pp ss pp
0.0000000000000000e+00 2.2653923264628304e+01
2.1879574711865565e-01 2.0387471732559472e+01
-2.8317404080785380e-01 2.8317404080785380e-01
ITEM: ATOMS id type xs ys zs
221 1 0.500039 0.475571 0.5
2 2 0.0249978 0.0478267 0.5
3 2 0.0499993 0.000102159 0.5
4 2 0.075 0.047826 0.5
5 2 0.100001 0.000102159 0.5
6 2 0.125002 0.0478267 0.5
7 2 0.150002 0.000103938 0.5
8 2 0.175004 0.0478285 0.5
9 2 0.200003 0.000107137 0.5
10 2 0.225005 0.0478309 0.5
11 2 0.250004 0.000111161 0.5
12 2 0.275005 0.0478334 0.5
13 2 0.300004 0.000115372 0.5
14 2 0.325005 0.0478356 0.5
15 2 0.350004 0.000119237 0.5
16 2 0.375004 0.0478373 0.5
17 2 0.400004 0.000122418 0.5
18 2 0.425003 0.0478387 0.5
19 2 0.450003 0.000124767 0.5
20 2 0.475002 0.0478396 0.5
406 1 0.250259 0.951061 0.5
42 1 0.0250115 0.142877 0.5
43 2 0.0499985 0.0953546 0.5
44 1 0.0750135 0.142878 0.5
45 2 0.100002 0.0953546 0.5
46 1 0.125015 0.142879 0.5
47 2 0.150004 0.0953546 0.5
48 1 0.175015 0.14288 0.5
49 2 0.200006 0.0953547 0.5
50 1 0.225014 0.142881 0.5
51 2 0.250007 0.095355 0.5
52 1 0.275012 0.142882 0.5
53 2 0.300006 0.0953556 0.5
54 1 0.32501 0.142883 0.5
55 2 0.350005 0.0953562 0.5
56 1 0.375007 0.142883 0.5
57 2 0.400004 0.0953567 0.5
58 1 0.425005 0.142883 0.5
59 2 0.450003 0.0953571 0.5
60 1 0.475002 0.142882 0.5
405 1 0.200219 0.95102 0.5
82 1 0.0250384 0.237922 0.5
83 1 0.0500259 0.1904 0.5
84 1 0.0750396 0.237926 0.5
85 1 0.100027 0.190403 0.5
86 1 0.125039 0.237931 0.5
87 1 0.150026 0.190406 0.5
88 1 0.175037 0.237935 0.5
89 1 0.200024 0.190408 0.5
90 1 0.225033 0.237938 0.5
91 1 0.250021 0.19041 0.5
92 1 0.275027 0.23794 0.5
93 1 0.300017 0.190411 0.5
94 1 0.325021 0.237941 0.5
95 1 0.350013 0.190411 0.5
96 1 0.375015 0.23794 0.5
97 1 0.400009 0.19041 0.5
98 1 0.42501 0.237938 0.5
99 1 0.450005 0.190409 0.5
100 1 0.475006 0.237934 0.5
404 1 0.150192 0.950984 0.5
122 1 0.0250663 0.332965 0.5
123 1 0.0500529 0.285447 0.5
124 1 0.0750676 0.332975 0.5
125 1 0.100053 0.285454 0.5
126 1 0.125066 0.332985 0.5
127 1 0.150051 0.285461 0.5
128 1 0.175063 0.332993 0.5
129 1 0.200047 0.285466 0.5
130 1 0.225057 0.333 0.5
131 1 0.250041 0.28547 0.5
132 1 0.275049 0.333004 0.5
133 1 0.300033 0.285472 0.5
134 1 0.325039 0.333005 0.5
135 1 0.350026 0.285471 0.5
136 1 0.37503 0.333002 0.5
137 1 0.400018 0.285469 0.5
138 1 0.425021 0.332997 0.5
139 1 0.450012 0.285464 0.5
140 1 0.475015 0.33299 0.5
403 1 0.100173 0.950952 0.5
162 1 0.0250974 0.428007 0.5
163 1 0.0500826 0.380493 0.5
164 1 0.0750993 0.428024 0.5
165 1 0.100083 0.380506 0.5
166 1 0.125099 0.42804 0.5
167 1 0.15008 0.380519 0.5
168 1 0.175095 0.428055 0.5
169 1 0.200075 0.380529 0.5
170 1 0.225089 0.428067 0.5
171 1 0.250067 0.380536 0.5
172 1 0.275079 0.428075 0.5
173 1 0.300057 0.38054 0.5
174 1 0.325067 0.428077 0.5
175 1 0.350046 0.380539 0.5
176 1 0.375054 0.428073 0.5
177 1 0.400035 0.380533 0.5
178 1 0.425042 0.428063 0.5
179 1 0.450026 0.380524 0.5
180 1 0.475031 0.428049 0.5
410 3 0.450666 0.951316 0.5
202 1 0.0251305 0.523048 0.5
203 1 0.0501153 0.475538 0.5
204 1 0.0751333 0.523072 0.5
205 1 0.100117 0.475558 0.5
206 1 0.125135 0.523096 0.5
207 1 0.150115 0.475578 0.5
208 1 0.175134 0.523119 0.5
209 1 0.200111 0.475595 0.5
210 1 0.22513 0.523138 0.5
211 1 0.250104 0.475608 0.5
212 1 0.275122 0.523152 0.5
213 1 0.300093 0.475615 0.5
214 1 0.325109 0.523158 0.5
215 1 0.350079 0.475615 0.5
216 1 0.375093 0.523155 0.5
217 1 0.400064 0.475607 0.5
218 1 0.425075 0.52314 0.5
219 1 0.450049 0.475592 0.5
220 1 0.475059 0.523117 0.5
402 1 0.0501636 0.950923 0.5
242 1 0.0251609 0.618086 0.5
243 1 0.0501482 0.570581 0.5
244 1 0.0751653 0.618116 0.5
245 1 0.100152 0.570608 0.5
246 1 0.12517 0.618148 0.5
247 1 0.150154 0.570636 0.5
248 1 0.175175 0.618179 0.5
249 1 0.200154 0.570662 0.5
250 1 0.225178 0.618208 0.5
251 1 0.250151 0.570684 0.5
252 1 0.275177 0.618233 0.5
253 1 0.300143 0.570699 0.5
254 1 0.32517 0.61825 0.5
255 1 0.350129 0.570704 0.5
256 1 0.375154 0.618253 0.5
257 1 0.40011 0.570695 0.5
258 1 0.425131 0.618236 0.5
259 1 0.450089 0.570672 0.5
260 1 0.475106 0.6182 0.5
409 1 0.400501 0.951232 0.5
282 1 0.0251824 0.713122 0.5
283 1 0.0501756 0.66562 0.5
284 1 0.0751884 0.713156 0.5
285 1 0.100182 0.665654 0.5
286 1 0.125198 0.713192 0.5
287 1 0.15019 0.665688 0.5
288 1 0.17521 0.71323 0.5
289 1 0.200198 0.665723 0.5
290 1 0.225225 0.713269 0.5
291 1 0.250205 0.665757 0.5
292 1 0.275238 0.713307 0.5
293 1 0.300208 0.665786 0.5
294 1 0.325247 0.713342 0.5
295 1 0.350203 0.665805 0.5
296 1 0.375247 0.713365 0.5
297 1 0.400187 0.665806 0.5
298 1 0.42523 0.713365 0.5
299 1 0.450157 0.665777 0.5
300 1 0.475189 0.713319 0.5
321 1 0.000186144 0.760623 0.5
322 1 0.0251884 0.808156 0.5
323 1 0.0501904 0.760656 0.5
324 1 0.0751957 0.80819 0.5
325 1 0.1002 0.760692 0.5
326 1 0.125209 0.808226 0.5
327 1 0.150214 0.76073 0.5
328 1 0.175229 0.808266 0.5
329 1 0.200233 0.760771 0.5
330 1 0.225256 0.80831 0.5
331 1 0.250255 0.760814 0.5
332 1 0.275288 0.808358 0.5
333 1 0.300278 0.760859 0.5
334 1 0.325324 0.808411 0.5
335 1 0.350297 0.760901 0.5
336 1 0.37536 0.808464 0.5
337 1 0.400305 0.760933 0.5
338 1 0.425383 0.808511 0.5
339 1 0.450288 0.760936 0.5
340 1 0.475374 0.808532 0.5
408 1 0.350392 0.951164 0.5
362 1 0.0251752 0.903191 0.5
363 1 0.0501871 0.855688 0.5
364 1 0.0751822 0.903221 0.5
365 1 0.100198 0.855721 0.5
366 1 0.125197 0.903254 0.5
367 1 0.150217 0.855758 0.5
368 1 0.17522 0.90329 0.5
369 1 0.200243 0.855799 0.5
370 1 0.225254 0.903332 0.5
371 1 0.250279 0.855846 0.5
372 1 0.275299 0.90338 0.5
373 1 0.300324 0.855899 0.5
374 1 0.32536 0.903436 0.5
375 1 0.350379 0.85596 0.5
376 1 0.37544 0.903504 0.5
377 1 0.400439 0.856029 0.5
378 1 0.425545 0.903587 0.5
379 3 0.45049 0.856102 0.5
380 3 0.475684 0.903727 0.5
407 1 0.300315 0.951108 0.5
261 1 0.500071 0.570638 0.5
401 1 0.000161088 0.950897 0.5
361 1 0.000183197 0.855657 0.5
301 1 0.500126 0.665723 0.5
21 2 0.500002 0.000126274 0.5
22 2 0.525001 0.0478403 0.5
23 2 0.550001 0.000127 0.5
24 2 0.575 0.0478405 0.5
25 2 0.599999 0.000127 0.5
26 2 0.624999 0.0478403 0.5
27 2 0.649998 0.000126274 0.5
28 2 0.674998 0.0478396 0.5
29 2 0.699997 0.000124767 0.5
30 2 0.724997 0.0478387 0.5
31 2 0.749996 0.000122418 0.5
32 2 0.774996 0.0478373 0.5
33 2 0.799996 0.000119237 0.5
34 2 0.824995 0.0478356 0.5
35 2 0.849996 0.000115372 0.5
36 2 0.874995 0.0478334 0.5
37 2 0.899996 0.000111161 0.5
38 2 0.924995 0.0478309 0.5
39 2 0.949997 0.000107137 0.5
40 2 0.974996 0.0478285 0.5
61 2 0.500002 0.0953573 0.5
62 1 0.525001 0.142882 0.5
63 2 0.550001 0.0953575 0.5
64 1 0.575 0.142881 0.5
65 2 0.599999 0.0953575 0.5
66 1 0.624999 0.14288 0.5
67 2 0.649998 0.0953573 0.5
68 1 0.674999 0.142879 0.5
69 2 0.699997 0.0953571 0.5
70 1 0.725 0.142878 0.5
71 2 0.749996 0.0953567 0.5
72 1 0.775001 0.142877 0.5
73 2 0.799995 0.0953562 0.5
74 1 0.825003 0.142877 0.5
75 2 0.849994 0.0953556 0.5
76 1 0.875005 0.142876 0.5
77 2 0.899993 0.095355 0.5
78 1 0.925007 0.142876 0.5
79 2 0.949994 0.0953547 0.5
80 1 0.975009 0.142876 0.5
101 1 0.500002 0.190407 0.5
102 1 0.525003 0.237931 0.5
103 1 0.55 0.190405 0.5
104 1 0.575002 0.237926 0.5
105 1 0.6 0.190403 0.5
106 1 0.625003 0.237922 0.5
107 1 0.650001 0.1904 0.5
108 1 0.675005 0.237919 0.5
109 1 0.700003 0.190398 0.5
110 1 0.725009 0.237916 0.5
111 1 0.750006 0.190397 0.5
112 1 0.775015 0.237914 0.5
113 1 0.80001 0.190396 0.5
114 1 0.82502 0.237913 0.5
115 1 0.850013 0.190395 0.5
116 1 0.875026 0.237913 0.5
117 1 0.900017 0.190396 0.5
118 1 0.925031 0.237915 0.5
119 1 0.950021 0.190397 0.5
120 1 0.975035 0.237918 0.5
420 1 0.950166 0.950871 0.5
142 1 0.52501 0.332981 0.5
143 1 0.550005 0.285452 0.5
144 1 0.575009 0.332971 0.5
145 1 0.600005 0.285446 0.5
146 1 0.625011 0.332962 0.5
147 1 0.650008 0.28544 0.5
148 1 0.675015 0.332954 0.5
149 1 0.700012 0.285435 0.5
150 1 0.725023 0.332948 0.5
151 1 0.750019 0.285431 0.5
152 1 0.775031 0.332944 0.5
153 1 0.800026 0.285429 0.5
154 1 0.82504 0.332943 0.5
155 1 0.850033 0.285429 0.5
156 1 0.875049 0.332945 0.5
157 1 0.900041 0.285431 0.5
158 1 0.925057 0.332949 0.5
159 1 0.950046 0.285435 0.5
160 1 0.975063 0.332956 0.5
419 1 0.900177 0.950846 0.5
182 1 0.525024 0.428033 0.5
183 1 0.550015 0.3805 0.5
184 1 0.575022 0.428015 0.5
185 1 0.600015 0.380487 0.5
186 1 0.625025 0.427998 0.5
187 1 0.65002 0.380475 0.5
188 1 0.675032 0.427983 0.5
189 1 0.700027 0.380465 0.5
190 1 0.725042 0.427972 0.5
191 1 0.750036 0.380458 0.5
192 1 0.775054 0.427966 0.5
193 1 0.800047 0.380455 0.5
194 1 0.825067 0.427965 0.5
195 1 0.850058 0.380456 0.5
196 1 0.875078 0.427969 0.5
197 1 0.900067 0.380461 0.5
198 1 0.925087 0.427979 0.5
199 1 0.950075 0.380469 0.5
200 1 0.975093 0.427992 0.5
418 1 0.850196 0.950821 0.5
222 1 0.525048 0.523088 0.5
223 1 0.550033 0.475548 0.5
224 1 0.575045 0.523058 0.5
225 1 0.600033 0.475525 0.5
226 1 0.625048 0.523029 0.5
227 1 0.650039 0.475504 0.5
228 1 0.675058 0.523004 0.5
229 1 0.70005 0.475488 0.5
230 1 0.725073 0.522986 0.5
231 1 0.750063 0.475476 0.5
232 1 0.775088 0.522978 0.5
233 1 0.800076 0.475472 0.5
234 1 0.825102 0.522979 0.5
235 1 0.850089 0.475476 0.5
236 1 0.875113 0.522989 0.5
237 1 0.900099 0.475485 0.5
238 1 0.92512 0.523005 0.5
239 1 0.950107 0.4755 0.5
240 1 0.975126 0.523025 0.5
281 1 1.00017 0.665589 0.5
262 1 0.525086 0.618152 0.5
263 1 0.550061 0.570599 0.5
264 1 0.575079 0.618099 0.5
265 1 0.600061 0.57056 0.5
266 1 0.625084 0.61805 0.5
267 1 0.65007 0.570524 0.5
268 1 0.6751 0.618009 0.5
269 1 0.700085 0.570497 0.5
270 1 0.72512 0.617984 0.5
271 1 0.750102 0.570482 0.5
272 1 0.775137 0.617977 0.5
273 1 0.800118 0.57048 0.5
274 1 0.825147 0.617987 0.5
275 1 0.850128 0.570489 0.5
276 1 0.875152 0.618006 0.5
277 1 0.900135 0.570507 0.5
278 1 0.925155 0.61803 0.5
279 1 0.95014 0.570529 0.5
280 1 0.975157 0.618057 0.5
411 3 0.501001 0.951569 0.5
302 1 0.525149 0.713235 0.5
303 1 0.550105 0.665655 0.5
304 1 0.57513 0.713139 0.5
305 1 0.600103 0.665586 0.5
306 1 0.62514 0.713049 0.5
307 1 0.650118 0.665526 0.5
308 1 0.675169 0.712983 0.5
309 1 0.700142 0.665485 0.5
310 1 0.725197 0.712955 0.5
311 1 0.750163 0.66547 0.5
312 1 0.7752 0.712972 0.5
313 1 0.800171 0.665481 0.5
314 1 0.825194 0.713 0.5
315 1 0.850171 0.665504 0.5
316 1 0.875186 0.71303 0.5
317 1 0.90017 0.66553 0.5
318 1 0.925181 0.713059 0.5
319 1 0.95017 0.665558 0.5
320 1 0.97518 0.71309 0.5
417 1 0.800224 0.950796 0.5
342 1 0.525271 0.808388 0.5
343 1 0.550176 0.760728 0.5
344 1 0.575211 0.808178 0.5
345 1 0.600168 0.760592 0.5
346 1 0.625239 0.807987 0.5
347 1 0.650202 0.760482 0.5
348 1 0.675314 0.807872 0.5
349 1 0.700244 0.760427 0.5
350 1 0.725286 0.807936 0.5
351 1 0.750239 0.760458 0.5
352 1 0.775248 0.807994 0.5
353 1 0.80022 0.760497 0.5
354 1 0.825221 0.808033 0.5
355 1 0.850204 0.76053 0.5
356 1 0.875203 0.808064 0.5
357 1 0.900193 0.760561 0.5
358 1 0.925192 0.808094 0.5
359 1 0.950187 0.760591 0.5
360 1 0.975187 0.808125 0.5
381 3 0.500511 0.856185 0.5
382 3 0.525829 0.90401 0.5
383 3 0.550314 0.855883 0.5
384 3 0.575416 0.903262 0.5
385 3 0.600282 0.855531 0.5
386 3 0.625699 0.90254 0.5
387 3 0.650431 0.855261 0.5
388 3 0.675447 0.902894 0.5
389 3 0.70034 0.855411 0.5
390 3 0.725311 0.902999 0.5
391 3 0.750269 0.855494 0.5
392 3 0.77524 0.903055 0.5
393 1 0.800233 0.85554 0.5
394 1 0.825216 0.903081 0.5
395 1 0.850211 0.85557 0.5
396 1 0.875196 0.903109 0.5
397 1 0.900195 0.855599 0.5
398 1 0.925182 0.903136 0.5
399 1 0.950186 0.855628 0.5
400 1 0.975175 0.903163 0.5
421 3 0.582746 0.999968 0.5
412 3 0.551644 0.952495 0.5
413 3 0.601268 0.949695 0.5
414 3 0.650593 0.950638 0.5
415 3 0.700373 0.95072 0.5
416 3 0.750264 0.950778 0.5
201 1 1.00011 0.475518 0.5
1 2 0.999998 0.000103938 0.5
341 1 0.500228 0.760858 0.5
41 2 0.999996 0.0953546 0.5
181 1 0.500019 0.380513 0.5
141 1 0.500007 0.285459 0.5
81 1 1.00002 0.190398 0.5
121 1 1.00005 0.28544 0.5
161 1 1.00008 0.38048 0.5
241 1 1.00014 0.570554 0.5
ITEM: TIMESTEP
107
ITEM: NUMBER OF ATOMS
421
ITEM: BOX BOUNDS pp ss pp
0.0000000000000000e+00 2.2653923264628304e+01
2.1879574711865565e-01 2.0388890054584184e+01
-2.8317404080785380e-01 2.8317404080785380e-01
ITEM: ATOMS id type xs ys zs
361 1 0.00023963 0.855594 0.5
2 2 0.0249978 0.0478233 0.5
3 2 0.0499993 0.000102152 0.5
4 2 0.075 0.0478227 0.5
5 2 0.100001 0.000102152 0.5
6 2 0.125002 0.0478233 0.5
7 2 0.150002 0.000103931 0.5
8 2 0.175004 0.0478251 0.5
9 2 0.200003 0.00010713 0.5
10 2 0.225005 0.0478276 0.5
11 2 0.250004 0.000111153 0.5
12 2 0.275005 0.0478301 0.5
13 2 0.300004 0.000115363 0.5
14 2 0.325005 0.0478322 0.5
15 2 0.350004 0.000119229 0.5
16 2 0.375004 0.047834 0.5
17 2 0.400004 0.00012241 0.5
18 2 0.425003 0.0478353 0.5
19 2 0.450003 0.000124758 0.5
20 2 0.475002 0.0478363 0.5
406 1 0.250317 0.95099 0.5
42 1 0.0250182 0.142866 0.5
43 2 0.0499985 0.0953479 0.5
44 1 0.0750202 0.142867 0.5
45 2 0.100002 0.0953479 0.5
46 1 0.125021 0.142868 0.5
47 2 0.150004 0.0953479 0.5
48 1 0.175022 0.14287 0.5
49 2 0.200006 0.095348 0.5
50 1 0.225021 0.142871 0.5
51 2 0.250007 0.0953483 0.5
52 1 0.275019 0.142872 0.5
53 2 0.300006 0.0953489 0.5
54 1 0.325016 0.142872 0.5
55 2 0.350005 0.0953495 0.5
56 1 0.375014 0.142872 0.5
57 2 0.400004 0.09535 0.5
58 1 0.425011 0.142872 0.5
59 2 0.450003 0.0953504 0.5
60 1 0.475009 0.142872 0.5
405 1 0.200278 0.95095 0.5
82 1 0.0250581 0.237904 0.5
83 1 0.0500392 0.190386 0.5
84 1 0.0750591 0.237908 0.5
85 1 0.10004 0.190389 0.5
86 1 0.125058 0.237912 0.5
87 1 0.150039 0.190391 0.5
88 1 0.175056 0.237916 0.5
89 1 0.200037 0.190394 0.5
90 1 0.225052 0.23792 0.5
91 1 0.250034 0.190395 0.5
92 1 0.275046 0.237922 0.5
93 1 0.30003 0.190396 0.5
94 1 0.32504 0.237922 0.5
95 1 0.350026 0.190396 0.5
96 1 0.375034 0.237921 0.5
97 1 0.400021 0.190395 0.5
98 1 0.425029 0.237919 0.5
99 1 0.450018 0.190394 0.5
100 1 0.475025 0.237915 0.5
404 1 0.15025 0.950915 0.5
122 1 0.025098 0.33294 0.5
123 1 0.0500786 0.285426 0.5
124 1 0.0750989 0.33295 0.5
125 1 0.100078 0.285432 0.5
126 1 0.125097 0.332959 0.5
127 1 0.150076 0.285439 0.5
128 1 0.175093 0.332968 0.5
129 1 0.200072 0.285444 0.5
130 1 0.225087 0.332974 0.5
131 1 0.250065 0.285448 0.5
132 1 0.275079 0.332977 0.5
133 1 0.300058 0.285449 0.5
134 1 0.32507 0.332978 0.5
135 1 0.35005 0.285448 0.5
136 1 0.37506 0.332975 0.5
137 1 0.400043 0.285445 0.5
138 1 0.425052 0.332969 0.5
139 1 0.450037 0.285441 0.5
140 1 0.475045 0.332962 0.5
403 1 0.100231 0.950883 0.5
162 1 0.0251391 0.427976 0.5
163 1 0.0501193 0.380465 0.5
164 1 0.0751405 0.427992 0.5
165 1 0.100119 0.380477 0.5
166 1 0.125139 0.428008 0.5
167 1 0.150116 0.380489 0.5
168 1 0.175135 0.428022 0.5
169 1 0.200111 0.380499 0.5
170 1 0.225128 0.428033 0.5
171 1 0.250103 0.380506 0.5
172 1 0.275119 0.42804 0.5
173 1 0.300093 0.380509 0.5
174 1 0.325107 0.428041 0.5
175 1 0.350081 0.380507 0.5
176 1 0.375094 0.428037 0.5
177 1 0.40007 0.380501 0.5
178 1 0.425081 0.428027 0.5
179 1 0.450061 0.380492 0.5
180 1 0.475071 0.428013 0.5
410 3 0.450711 0.951241 0.5
202 1 0.0251797 0.523009 0.5
203 1 0.0501609 0.475503 0.5
204 1 0.0751822 0.523033 0.5
205 1 0.100162 0.475523 0.5
206 1 0.125183 0.523056 0.5
207 1 0.15016 0.475542 0.5
208 1 0.175181 0.523078 0.5
209 1 0.200155 0.475558 0.5
210 1 0.225177 0.523097 0.5
211 1 0.250148 0.47557 0.5
212 1 0.275168 0.52311 0.5
213 1 0.300136 0.475577 0.5
214 1 0.325156 0.523115 0.5
215 1 0.350122 0.475575 0.5
216 1 0.375139 0.52311 0.5
217 1 0.400107 0.475566 0.5
218 1 0.425122 0.523095 0.5
219 1 0.450093 0.475551 0.5
220 1 0.475106 0.523072 0.5
402 1 0.0502202 0.950853 0.5
242 1 0.0252153 0.618041 0.5
243 1 0.0502002 0.570539 0.5
244 1 0.0752195 0.618071 0.5
245 1 0.100203 0.570566 0.5
246 1 0.125224 0.618101 0.5
247 1 0.150205 0.570593 0.5
248 1 0.175228 0.618132 0.5
249 1 0.200205 0.570618 0.5
250 1 0.22523 0.61816 0.5
251 1 0.250201 0.570639 0.5
252 1 0.275228 0.618183 0.5
253 1 0.300192 0.570653 0.5
254 1 0.325221 0.618199 0.5
255 1 0.350178 0.570656 0.5
256 1 0.375205 0.6182 0.5
257 1 0.400159 0.570646 0.5
258 1 0.425181 0.618182 0.5
259 1 0.450138 0.570622 0.5
260 1 0.475156 0.618146 0.5
409 1 0.400551 0.951158 0.5
282 1 0.0252394 0.71307 0.5
283 1 0.0502315 0.665572 0.5
284 1 0.0752456 0.713104 0.5
285 1 0.100238 0.665605 0.5
286 1 0.125255 0.713139 0.5
287 1 0.150245 0.665638 0.5
288 1 0.175267 0.713176 0.5
289 1 0.200253 0.665672 0.5
290 1 0.22528 0.713214 0.5
291 1 0.250259 0.665704 0.5
292 1 0.275292 0.71325 0.5
293 1 0.300261 0.665731 0.5
294 1 0.325301 0.713283 0.5
295 1 0.350255 0.665749 0.5
296 1 0.375299 0.713305 0.5
297 1 0.400238 0.665748 0.5
298 1 0.42528 0.713304 0.5
299 1 0.450208 0.665719 0.5
300 1 0.475239 0.713256 0.5
321 1 0.000243266 0.760568 0.5
322 1 0.0252459 0.808097 0.5
323 1 0.0502481 0.760601 0.5
324 1 0.0752538 0.808131 0.5
325 1 0.100258 0.760636 0.5
326 1 0.125268 0.808167 0.5
327 1 0.150271 0.760673 0.5
328 1 0.175287 0.808206 0.5
329 1 0.200289 0.760713 0.5
330 1 0.225313 0.808249 0.5
331 1 0.25031 0.760755 0.5
332 1 0.275343 0.808295 0.5
333 1 0.300332 0.760798 0.5
334 1 0.325378 0.808346 0.5
335 1 0.35035 0.760839 0.5
336 1 0.375411 0.808398 0.5
337 1 0.400356 0.760868 0.5
338 1 0.425432 0.808442 0.5
339 1 0.450338 0.760871 0.5
340 1 0.475421 0.808463 0.5
408 1 0.350444 0.951091 0.5
362 1 0.0252317 0.903125 0.5
363 1 0.0502448 0.855626 0.5
364 1 0.07524 0.903155 0.5
365 1 0.100256 0.855659 0.5
366 1 0.125255 0.903188 0.5
367 1 0.150275 0.855696 0.5
368 1 0.175279 0.903224 0.5
369 1 0.200301 0.855736 0.5
370 1 0.225312 0.903265 0.5
371 1 0.250335 0.855781 0.5
372 1 0.275356 0.903311 0.5
373 1 0.300379 0.855832 0.5
374 1 0.325414 0.903366 0.5
375 1 0.350431 0.855891 0.5
376 1 0.375491 0.903432 0.5
377 1 0.400488 0.855959 0.5
378 1 0.425592 0.903515 0.5
379 3 0.450535 0.85603 0.5
380 3 0.475727 0.903653 0.5
407 1 0.30037 0.951036 0.5
401 1 0.000215792 0.950826 0.5
281 1 0.000227369 0.66554 0.5
241 1 0.000196711 0.570512 0.5
161 1 0.000116893 0.380452 0.5
121 1 7.66933e-05 0.285419 0.5
81 1 3.73e-05 0.190384 0.5
201 1 0.000157941 0.475483 0.5
21 2 0.500002 0.000126265 0.5
22 2 0.525001 0.0478369 0.5
23 2 0.550001 0.000126991 0.5
24 2 0.575 0.0478371 0.5