ITEM: TIMESTEP
0
ITEM: NUMBER OF ATOMS
421
ITEM: BOX BOUNDS pp ss pp
0.0000000000000000e+00 2.2653923264628304e+01
2.1879574711865565e-01 2.0425667959467873e+01
-2.8317404080785380e-01 2.8317404080785380e-01
ITEM: ATOMS id type xs ys zs
221 1 0.499997 0.474651 0.5
2 2 0.0249978 0.0477363 0.5
3 2 0.0499993 0.000101966 0.5
4 2 0.075 0.0477356 0.5
5 2 0.100001 0.000101966 0.5
6 2 0.125002 0.0477363 0.5
7 2 0.150002 0.000103741 0.5
8 2 0.175004 0.0477381 0.5
9 2 0.200003 0.000106935 0.5
10 2 0.225005 0.0477405 0.5
11 2 0.250004 0.000110951 0.5
12 2 0.275005 0.047743 0.5
13 2 0.300004 0.000115153 0.5
14 2 0.325005 0.0477452 0.5
15 2 0.350004 0.000119012 0.5
16 2 0.375004 0.0477469 0.5
17 2 0.400004 0.000122187 0.5
18 2 0.425003 0.0477482 0.5
19 2 0.450003 0.000124531 0.5
20 2 0.475002 0.0477492 0.5
406 1 0.250001 0.949205 0.5
42 1 0.0249972 0.142613 0.5
43 2 0.0499985 0.0951744 0.5
44 1 0.075 0.142614 0.5
45 2 0.100002 0.0951744 0.5
46 1 0.125003 0.142613 0.5
47 2 0.150004 0.0951743 0.5
48 1 0.175005 0.142611 0.5
49 2 0.200006 0.0951744 0.5
50 1 0.225007 0.14261 0.5
51 2 0.250007 0.0951748 0.5
52 1 0.275007 0.142609 0.5
53 2 0.300006 0.0951754 0.5
54 1 0.325007 0.142609 0.5
55 2 0.350005 0.095176 0.5
56 1 0.375006 0.142609 0.5
57 2 0.400004 0.0951764 0.5
58 1 0.425004 0.142609 0.5
59 2 0.450003 0.0951768 0.5
60 1 0.475003 0.142608 0.5
405 1 0.199986 0.949219 0.5
82 1 0.0249986 0.237492 0.5
83 1 0.049999 0.190058 0.5
84 1 0.075 0.237493 0.5
85 1 0.100001 0.190058 0.5
86 1 0.125001 0.237492 0.5
87 1 0.150003 0.190056 0.5
88 1 0.175003 0.23749 0.5
89 1 0.200005 0.190053 0.5
90 1 0.225006 0.237487 0.5
91 1 0.250007 0.19005 0.5
92 1 0.275008 0.237483 0.5
93 1 0.300008 0.190048 0.5
94 1 0.325009 0.237481 0.5
95 1 0.350007 0.190048 0.5
96 1 0.375008 0.237481 0.5
97 1 0.400006 0.190048 0.5
98 1 0.425007 0.237481 0.5
99 1 0.450004 0.190048 0.5
100 1 0.475005 0.23748 0.5
404 1 0.14998 0.949193 0.5
122 1 0.024999 0.332354 0.5
123 1 0.0499995 0.284922 0.5
124 1 0.075 0.332354 0.5
125 1 0.100001 0.284922 0.5
126 1 0.125001 0.332354 0.5
127 1 0.150002 0.284921 0.5
128 1 0.175002 0.332352 0.5
129 1 0.200004 0.284918 0.5
130 1 0.225005 0.33235 0.5
131 1 0.250006 0.284915 0.5
132 1 0.275007 0.332346 0.5
133 1 0.300009 0.284911 0.5
134 1 0.325011 0.332343 0.5
135 1 0.35001 0.284909 0.5
136 1 0.375012 0.33234 0.5
137 1 0.40001 0.284909 0.5
138 1 0.425013 0.332341 0.5
139 1 0.450008 0.284908 0.5
140 1 0.475011 0.332342 0.5
403 1 0.0999905 0.949162 0.5
162 1 0.024999 0.427222 0.5
163 1 0.0499993 0.379786 0.5
164 1 0.075 0.427223 0.5
165 1 0.100001 0.379786 0.5
166 1 0.125001 0.427222 0.5
167 1 0.150001 0.379785 0.5
168 1 0.175002 0.427221 0.5
169 1 0.200003 0.379782 0.5
170 1 0.225005 0.427219 0.5
171 1 0.250006 0.379781 0.5
172 1 0.275008 0.427217 0.5
173 1 0.300009 0.379778 0.5
174 1 0.325012 0.427214 0.5
175 1 0.350014 0.379775 0.5
176 1 0.375013 0.427213 0.5
177 1 0.400015 0.379774 0.5
178 1 0.425009 0.427217 0.5
179 1 0.450013 0.379777 0.5
180 1 0.475002 0.42722 0.5
410 3 0.450049 0.949183 0.5
202 1 0.0249985 0.522085 0.5
203 1 0.0499994 0.474655 0.5
204 1 0.075 0.522086 0.5
205 1 0.100001 0.474655 0.5
206 1 0.125002 0.522085 0.5
207 1 0.150002 0.474654 0.5
208 1 0.175004 0.522085 0.5
209 1 0.200004 0.474653 0.5
210 1 0.225005 0.522083 0.5
211 1 0.250007 0.47465 0.5
212 1 0.275002 0.522084 0.5
213 1 0.300008 0.474649 0.5
214 1 0.324995 0.522087 0.5
215 1 0.350004 0.47465 0.5
216 1 0.374989 0.522089 0.5
217 1 0.399999 0.474654 0.5
218 1 0.424989 0.522085 0.5
219 1 0.449996 0.474654 0.5
220 1 0.474993 0.52208 0.5
402 1 0.0500095 0.949162 0.5
242 1 0.0249956 0.616951 0.5
243 1 0.0499984 0.569522 0.5
244 1 0.075 0.616952 0.5
245 1 0.100002 0.569522 0.5
246 1 0.125004 0.616951 0.5
247 1 0.150005 0.569522 0.5
248 1 0.175003 0.616953 0.5
249 1 0.200003 0.569522 0.5
250 1 0.224995 0.616959 0.5
251 1 0.249997 0.569525 0.5
252 1 0.274984 0.616966 0.5
253 1 0.299988 0.56953 0.5
254 1 0.324976 0.616966 0.5
255 1 0.349981 0.56953 0.5
256 1 0.374979 0.616961 0.5
257 1 0.399983 0.569525 0.5
258 1 0.424985 0.616951 0.5
259 1 0.449988 0.569517 0.5
260 1 0.474991 0.616945 0.5
409 1 0.400035 0.949163 0.5
282 1 0.024998 0.711808 0.5
283 1 0.0499969 0.66438 0.5
284 1 0.075 0.711804 0.5
285 1 0.100003 0.66438 0.5
286 1 0.125002 0.711808 0.5
287 1 0.150003 0.664384 0.5
288 1 0.174995 0.711821 0.5
289 1 0.199995 0.664394 0.5
290 1 0.224983 0.711833 0.5
291 1 0.249982 0.664402 0.5
292 1 0.274976 0.711836 0.5
293 1 0.299974 0.664404 0.5
294 1 0.324978 0.711831 0.5
295 1 0.349977 0.664399 0.5
296 1 0.374984 0.711821 0.5
297 1 0.399983 0.664388 0.5
298 1 0.42499 0.711816 0.5
299 1 0.449989 0.664383 0.5
300 1 0.474995 0.71181 0.5
321 1 3.64377e-06 0.759251 0.5
322 1 0.025002 0.806682 0.5
323 1 0.0499996 0.759235 0.5
324 1 0.075 0.806671 0.5
325 1 0.1 0.759235 0.5
326 1 0.124998 0.806682 0.5
327 1 0.149996 0.759251 0.5
328 1 0.174989 0.806703 0.5
329 1 0.199986 0.759267 0.5
330 1 0.224981 0.806714 0.5
331 1 0.249978 0.759273 0.5
332 1 0.274982 0.806711 0.5
333 1 0.29998 0.759268 0.5
334 1 0.32499 0.8067 0.5
335 1 0.349986 0.759259 0.5
336 1 0.375003 0.806692 0.5
337 1 0.399995 0.759253 0.5
338 1 0.425016 0.806689 0.5
339 1 0.450003 0.759244 0.5
340 1 0.475017 0.806681 0.5
408 1 0.350024 0.949169 0.5
362 1 0.0250069 0.901546 0.5
363 1 0.0500014 0.854104 0.5
364 1 0.075 0.901529 0.5
365 1 0.0999986 0.854104 0.5
366 1 0.124993 0.901546 0.5
367 1 0.149994 0.854129 0.5
368 1 0.174988 0.901578 0.5
369 1 0.199985 0.854149 0.5
370 1 0.224986 0.901587 0.5
371 1 0.249982 0.854147 0.5
372 1 0.274994 0.901566 0.5
373 1 0.299993 0.854134 0.5
374 1 0.32501 0.901549 0.5
375 1 0.350007 0.854122 0.5
376 1 0.375023 0.901542 0.5
377 1 0.400022 0.854116 0.5
378 1 0.425037 0.901547 0.5
379 3 0.450032 0.854123 0.5
380 3 0.475046 0.901583 0.5
407 1 0.300014 0.949176 0.5
261 1 0.499993 0.569512 0.5
401 1 2.0232e-05 0.949193 0.5
361 1 6.38311e-06 0.854129 0.5
301 1 0.499992 0.664376 0.5
21 2 0.500002 0.000126036 0.5
22 2 0.525001 0.0477499 0.5
23 2 0.550001 0.00012676 0.5
24 2 0.575 0.0477501 0.5
25 2 0.599999 0.00012676 0.5
26 2 0.624999 0.0477499 0.5
27 2 0.649998 0.000126036 0.5
28 2 0.674998 0.0477492 0.5
29 2 0.699997 0.000124531 0.5
30 2 0.724997 0.0477482 0.5
31 2 0.749996 0.000122187 0.5
32 2 0.774996 0.0477469 0.5
33 2 0.799996 0.000119012 0.5
34 2 0.824995 0.0477452 0.5
35 2 0.849996 0.000115153 0.5
36 2 0.874995 0.047743 0.5
37 2 0.899996 0.000110951 0.5
38 2 0.924995 0.0477405 0.5
39 2 0.949997 0.000106935 0.5
40 2 0.974996 0.0477381 0.5
61 2 0.500002 0.0951771 0.5
62 1 0.525001 0.142608 0.5
63 2 0.550001 0.0951772 0.5
64 1 0.575 0.142608 0.5
65 2 0.599999 0.0951772 0.5
66 1 0.624999 0.142608 0.5
67 2 0.649998 0.0951771 0.5
68 1 0.674997 0.142608 0.5
69 2 0.699997 0.0951768 0.5
70 1 0.724996 0.142609 0.5
71 2 0.749996 0.0951764 0.5
72 1 0.774994 0.142609 0.5
73 2 0.799995 0.095176 0.5
74 1 0.824993 0.142609 0.5
75 2 0.849994 0.0951754 0.5
76 1 0.874993 0.142609 0.5
77 2 0.899993 0.0951748 0.5
78 1 0.924993 0.14261 0.5
79 2 0.949994 0.0951744 0.5
80 1 0.974995 0.142611 0.5
101 1 0.500002 0.190048 0.5
102 1 0.525002 0.23748 0.5
103 1 0.550001 0.190048 0.5
104 1 0.575 0.237479 0.5
105 1 0.599999 0.190048 0.5
106 1 0.624998 0.23748 0.5
107 1 0.649998 0.190048 0.5
108 1 0.674995 0.23748 0.5
109 1 0.699996 0.190048 0.5
110 1 0.724993 0.237481 0.5
111 1 0.749994 0.190048 0.5
112 1 0.774992 0.237481 0.5
113 1 0.799993 0.190048 0.5
114 1 0.824991 0.237481 0.5
115 1 0.849992 0.190048 0.5
116 1 0.874992 0.237483 0.5
117 1 0.899993 0.19005 0.5
118 1 0.924994 0.237487 0.5
119 1 0.949995 0.190053 0.5
120 1 0.974997 0.23749 0.5
420 1 0.950014 0.949219 0.5
142 1 0.525006 0.332345 0.5
143 1 0.550003 0.284908 0.5
144 1 0.575 0.332348 0.5
145 1 0.599997 0.284908 0.5
146 1 0.624994 0.332345 0.5
147 1 0.649994 0.284908 0.5
148 1 0.674989 0.332342 0.5
149 1 0.699992 0.284908 0.5
150 1 0.724987 0.332341 0.5
151 1 0.74999 0.284909 0.5
152 1 0.774988 0.33234 0.5
153 1 0.79999 0.284909 0.5
154 1 0.824989 0.332343 0.5
155 1 0.849991 0.284911 0.5
156 1 0.874993 0.332346 0.5
157 1 0.899994 0.284915 0.5
158 1 0.924995 0.33235 0.5
159 1 0.949996 0.284918 0.5
160 1 0.974998 0.332352 0.5
419 1 0.899999 0.949205 0.5
182 1 0.525001 0.42722 0.5
183 1 0.550001 0.379782 0.5
184 1 0.575 0.42722 0.5
185 1 0.599999 0.379782 0.5
186 1 0.624999 0.42722 0.5
187 1 0.649993 0.379781 0.5
188 1 0.674998 0.42722 0.5
189 1 0.699987 0.379777 0.5
190 1 0.724991 0.427217 0.5
191 1 0.749985 0.379774 0.5
192 1 0.774987 0.427213 0.5
193 1 0.799986 0.379775 0.5
194 1 0.824988 0.427214 0.5
195 1 0.849991 0.379778 0.5
196 1 0.874992 0.427217 0.5
197 1 0.899994 0.379781 0.5
198 1 0.924995 0.427219 0.5
199 1 0.949997 0.379782 0.5
200 1 0.974998 0.427221 0.5
418 1 0.849986 0.949176 0.5
222 1 0.524995 0.522076 0.5
223 1 0.549999 0.474651 0.5
224 1 0.575 0.522075 0.5
225 1 0.600001 0.474651 0.5
226 1 0.625005 0.522076 0.5
227 1 0.650003 0.474651 0.5
228 1 0.675007 0.52208 0.5
229 1 0.700004 0.474654 0.5
230 1 0.725011 0.522085 0.5
231 1 0.750001 0.474654 0.5
232 1 0.775011 0.522089 0.5
233 1 0.799996 0.47465 0.5
234 1 0.825005 0.522087 0.5
235 1 0.849992 0.474649 0.5
236 1 0.874998 0.522084 0.5
237 1 0.899993 0.47465 0.5
238 1 0.924995 0.522083 0.5
239 1 0.949996 0.474653 0.5
240 1 0.974996 0.522085 0.5
281 1 0.999997 0.664384 0.5
262 1 0.524994 0.616943 0.5
263 1 0.549998 0.56951 0.5
264 1 0.575 0.616942 0.5
265 1 0.600002 0.56951 0.5
266 1 0.625006 0.616943 0.5
267 1 0.650007 0.569512 0.5
268 1 0.675009 0.616945 0.5
269 1 0.700012 0.569517 0.5
270 1 0.725015 0.616951 0.5
271 1 0.750017 0.569525 0.5
272 1 0.775021 0.616961 0.5
273 1 0.800019 0.56953 0.5
274 1 0.825024 0.616966 0.5
275 1 0.850012 0.56953 0.5
276 1 0.875016 0.616966 0.5
277 1 0.900003 0.569525 0.5
278 1 0.925005 0.616959 0.5
279 1 0.949997 0.569522 0.5
280 1 0.974997 0.616953 0.5
411 3 0.500093 0.949262 0.5
302 1 0.525 0.711805 0.5
303 1 0.549997 0.664371 0.5
304 1 0.575 0.7118 0.5
305 1 0.600003 0.664371 0.5
306 1 0.625 0.711805 0.5
307 1 0.650008 0.664376 0.5
308 1 0.675005 0.71181 0.5
309 1 0.700011 0.664383 0.5
310 1 0.72501 0.711816 0.5
311 1 0.750017 0.664388 0.5
312 1 0.775016 0.711821 0.5
313 1 0.800023 0.664399 0.5
314 1 0.825022 0.711831 0.5
315 1 0.850026 0.664404 0.5
316 1 0.875024 0.711836 0.5
317 1 0.900018 0.664402 0.5
318 1 0.925017 0.711833 0.5
319 1 0.950005 0.664394 0.5
320 1 0.975005 0.711821 0.5
417 1 0.799976 0.949169 0.5
342 1 0.525012 0.806684 0.5
343 1 0.550004 0.759235 0.5
344 1 0.575 0.806688 0.5
345 1 0.599996 0.759235 0.5
346 1 0.624988 0.806684 0.5
347 1 0.649991 0.759236 0.5
348 1 0.674983 0.806681 0.5
349 1 0.699997 0.759244 0.5
350 1 0.724984 0.806689 0.5
351 1 0.750005 0.759253 0.5
352 1 0.774997 0.806692 0.5
353 1 0.800014 0.759259 0.5
354 1 0.82501 0.8067 0.5
355 1 0.85002 0.759268 0.5
356 1 0.875018 0.806711 0.5
357 1 0.900022 0.759273 0.5
358 1 0.925019 0.806714 0.5
359 1 0.950014 0.759267 0.5
360 1 0.975011 0.806703 0.5
381 3 0.500017 0.854121 0.5
382 3 0.525009 0.901562 0.5
383 3 0.550006 0.854126 0.5
384 3 0.575 0.901577 0.5
385 3 0.599994 0.854126 0.5
386 3 0.624991 0.901562 0.5
387 3 0.649983 0.854121 0.5
388 3 0.674954 0.901583 0.5
389 3 0.699968 0.854123 0.5
390 3 0.724963 0.901547 0.5
391 3 0.749978 0.854116 0.5
392 3 0.774977 0.901542 0.5
393 1 0.799993 0.854122 0.5
394 1 0.82499 0.901549 0.5
395 1 0.850007 0.854134 0.5
396 1 0.875006 0.901566 0.5
397 1 0.900018 0.854147 0.5
398 1 0.925014 0.901587 0.5
399 1 0.950015 0.854149 0.5
400 1 0.975012 0.901578 0.5
421 3 0.594543 0.999898 0.5
412 3 0.549989 0.94908 0.5
413 3 0.600011 0.94908 0.5
414 3 0.649907 0.949262 0.5
415 3 0.699951 0.949183 0.5
416 3 0.749965 0.949163 0.5
201 1 0.999998 0.474654 0.5
1 2 0.999998 0.000103741 0.5
341 1 0.500009 0.759236 0.5
41 2 0.999996 0.0951743 0.5
181 1 0.500007 0.379781 0.5
141 1 0.500006 0.284908 0.5
81 1 0.999997 0.190056 0.5
121 1 0.999998 0.284921 0.5
161 1 0.999999 0.379785 0.5
241 1 0.999995 0.569522 0.5
ITEM: TIMESTEP
78
ITEM: NUMBER OF ATOMS
421
ITEM: BOX BOUNDS pp ss pp
0.0000000000000000e+00 2.2653923264628304e+01
2.1879574711865565e-01 2.0425667959467873e+01
-2.8317404080785380e-01 2.8317404080785380e-01
ITEM: ATOMS id type xs ys zs
221 1 0.500004 0.474612 0.5
2 2 0.0249978 0.0477363 0.5
3 2 0.0499993 0.000101966 0.5
4 2 0.075 0.0477356 0.5
5 2 0.100001 0.000101966 0.5
6 2 0.125002 0.0477363 0.5
7 2 0.150002 0.000103741 0.5
8 2 0.175004 0.0477381 0.5
9 2 0.200003 0.000106935 0.5
10 2 0.225005 0.0477405 0.5
11 2 0.250004 0.000110951 0.5
12 2 0.275005 0.047743 0.5
13 2 0.300004 0.000115153 0.5
14 2 0.325005 0.0477452 0.5
15 2 0.350004 0.000119012 0.5
16 2 0.375004 0.0477469 0.5
17 2 0.400004 0.000122187 0.5
18 2 0.425003 0.0477482 0.5
19 2 0.450003 0.000124531 0.5
20 2 0.475002 0.0477492 0.5
406 1 0.250118 0.949176 0.5
42 1 0.0250035 0.142605 0.5
43 2 0.0499985 0.0951744 0.5
44 1 0.0750048 0.142605 0.5
45 2 0.100002 0.0951744 0.5
46 1 0.125006 0.142606 0.5
47 2 0.150004 0.0951743 0.5
48 1 0.175006 0.142606 0.5
49 2 0.200006 0.0951744 0.5
50 1 0.225006 0.142607 0.5
51 2 0.250007 0.0951748 0.5
52 1 0.275005 0.142607 0.5
53 2 0.300006 0.0951754 0.5
54 1 0.325004 0.142608 0.5
55 2 0.350005 0.095176 0.5
56 1 0.375003 0.142608 0.5
57 2 0.400004 0.0951764 0.5
58 1 0.425002 0.142608 0.5
59 2 0.450003 0.0951768 0.5
60 1 0.475001 0.142608 0.5
405 1 0.200094 0.949162 0.5
82 1 0.0250147 0.237468 0.5
83 1 0.0500094 0.190037 0.5
84 1 0.075014 0.23747 0.5
85 1 0.100009 0.190038 0.5
86 1 0.125013 0.237472 0.5
87 1 0.150009 0.190039 0.5
88 1 0.175011 0.237473 0.5
89 1 0.200008 0.19004 0.5
90 1 0.225008 0.237474 0.5
91 1 0.250006 0.19004 0.5
92 1 0.275006 0.237474 0.5
93 1 0.300004 0.19004 0.5
94 1 0.325003 0.237473 0.5
95 1 0.350002 0.19004 0.5
96 1 0.375001 0.237472 0.5
97 1 0.400001 0.19004 0.5
98 1 0.425 0.23747 0.5
99 1 0.45 0.190039 0.5
100 1 0.474999 0.237469 0.5
404 1 0.150074 0.94915 0.5
122 1 0.0250254 0.332333 0.5
123 1 0.0500195 0.284902 0.5
124 1 0.0750237 0.332337 0.5
125 1 0.100018 0.284904 0.5
126 1 0.125021 0.33234 0.5
127 1 0.150015 0.284907 0.5
128 1 0.175018 0.332342 0.5
129 1 0.200012 0.284908 0.5
130 1 0.225014 0.332343 0.5
131 1 0.250009 0.284908 0.5
132 1 0.27501 0.332343 0.5
133 1 0.300005 0.284907 0.5
134 1 0.325006 0.332341 0.5
135 1 0.350002 0.284906 0.5
136 1 0.375002 0.332337 0.5
137 1 0.4 0.284903 0.5
138 1 0.425 0.332333 0.5
139 1 0.449999 0.2849 0.5
140 1 0.474999 0.332329 0.5
403 1 0.100058 0.94914 0.5
162 1 0.0250362 0.427198 0.5
163 1 0.05003 0.379768 0.5
164 1 0.0750343 0.427205 0.5
165 1 0.100028 0.379773 0.5
166 1 0.125031 0.42721 0.5
167 1 0.150024 0.379777 0.5
168 1 0.175028 0.427214 0.5
169 1 0.20002 0.379779 0.5
170 1 0.225023 0.427216 0.5
171 1 0.250016 0.379779 0.5
172 1 0.275018 0.427215 0.5
173 1 0.300011 0.379777 0.5
174 1 0.325012 0.427211 0.5
175 1 0.350006 0.379773 0.5
176 1 0.375007 0.427205 0.5
177 1 0.400003 0.379768 0.5
178 1 0.425004 0.427197 0.5
179 1 0.45 0.379762 0.5
180 1 0.475002 0.427188 0.5
410 3 0.450345 0.949261 0.5
202 1 0.0250464 0.522064 0.5
203 1 0.0500407 0.474635 0.5
204 1 0.0750453 0.522073 0.5
205 1 0.100039 0.474643 0.5
206 1 0.125044 0.522081 0.5
207 1 0.150036 0.474648 0.5
208 1 0.175041 0.522087 0.5
209 1 0.200032 0.474652 0.5
210 1 0.225038 0.522091 0.5
211 1 0.250027 0.474653 0.5
212 1 0.275033 0.522091 0.5
213 1 0.300021 0.47465 0.5
214 1 0.325026 0.522086 0.5
215 1 0.350015 0.474644 0.5
216 1 0.375018 0.522077 0.5
217 1 0.400009 0.474635 0.5
218 1 0.425012 0.522063 0.5
219 1 0.450005 0.474624 0.5
220 1 0.475008 0.522048 0.5
402 1 0.0500449 0.94913 0.5
242 1 0.0250538 0.616929 0.5
243 1 0.0500505 0.569502 0.5
244 1 0.075055 0.61694 0.5
245 1 0.10005 0.569512 0.5
246 1 0.125057 0.61695 0.5
247 1 0.15005 0.56952 0.5
248 1 0.175058 0.616959 0.5
249 1 0.200048 0.569526 0.5
250 1 0.225058 0.616966 0.5
251 1 0.250045 0.56953 0.5
252 1 0.275055 0.616969 0.5
253 1 0.30004 0.569528 0.5
254 1 0.32505 0.616967 0.5
255 1 0.350032 0.569521 0.5
256 1 0.375041 0.616957 0.5
257 1 0.400023 0.569508 0.5
258 1 0.425029 0.616937 0.5
259 1 0.450015 0.569489 0.5
260 1 0.47502 0.61691 0.5
409 1 0.400254 0.949232 0.5
282 1 0.0250565 0.71179 0.5
283 1 0.0500571 0.664366 0.5
284 1 0.0750612 0.711802 0.5
285 1 0.10006 0.664377 0.5
286 1 0.125067 0.711814 0.5
287 1 0.150064 0.664388 0.5
288 1 0.175074 0.711825 0.5
289 1 0.200068 0.664398 0.5
290 1 0.225081 0.711837 0.5
291 1 0.25007 0.664406 0.5
292 1 0.275086 0.711846 0.5
293 1 0.300069 0.66441 0.5
294 1 0.325088 0.711852 0.5
295 1 0.350064 0.664407 0.5
296 1 0.375083 0.711849 0.5
297 1 0.400052 0.664393 0.5
298 1 0.425069 0.71183 0.5
299 1 0.450036 0.664363 0.5
300 1 0.475045 0.711785 0.5
321 1 5.29097e-05 0.759213 0.5
322 1 0.0250532 0.806646 0.5
323 1 0.0500588 0.759225 0.5
324 1 0.0750621 0.806658 0.5
325 1 0.100067 0.759237 0.5
326 1 0.125073 0.80667 0.5
327 1 0.150076 0.759249 0.5
328 1 0.175086 0.806683 0.5
329 1 0.200086 0.759262 0.5
330 1 0.225101 0.806697 0.5
331 1 0.250097 0.759275 0.5
332 1 0.275117 0.806712 0.5
333 1 0.300107 0.759287 0.5
334 1 0.325133 0.806728 0.5
335 1 0.350113 0.759295 0.5
336 1 0.375147 0.806741 0.5
337 1 0.40011 0.759294 0.5
338 1 0.42515 0.806744 0.5
339 1 0.450093 0.759272 0.5
340 1 0.47513 0.806724 0.5
408 1 0.350194 0.94921 0.5
362 1 0.0250448 0.9015 0.5
363 1 0.0500546 0.854078 0.5
364 1 0.0750564 0.901509 0.5
365 1 0.100066 0.854089 0.5
366 1 0.12507 0.90152 0.5
367 1 0.15008 0.854101 0.5
368 1 0.175087 0.901532 0.5
369 1 0.200097 0.854114 0.5
370 1 0.225108 0.901546 0.5
371 1 0.250117 0.85413 0.5
372 1 0.275134 0.901562 0.5
373 1 0.300141 0.854147 0.5
374 1 0.325167 0.901581 0.5
375 1 0.350167 0.854167 0.5
376 1 0.375208 0.901604 0.5
377 1 0.400193 0.854187 0.5
378 1 0.425259 0.901633 0.5
379 3 0.450209 0.854203 0.5
380 3 0.475319 0.901679 0.5
407 1 0.300151 0.949191 0.5
261 1 0.500012 0.569469 0.5
401 1 3.37068e-05 0.949121 0.5
361 1 4.50924e-05 0.854067 0.5
301 1 0.500025 0.664326 0.5
21 2 0.500002 0.000126036 0.5
22 2 0.525001 0.0477499 0.5
23 2 0.550001 0.00012676 0.5
24 2 0.575 0.0477501 0.5
25 2 0.599999 0.00012676 0.5
26 2 0.624999 0.0477499 0.5
27 2 0.649998 0.000126036 0.5
28 2 0.674998 0.0477492 0.5
29 2 0.699997 0.000124531 0.5
30 2 0.724997 0.0477482 0.5
31 2 0.749996 0.000122187 0.5
32 2 0.774996 0.0477469 0.5
33 2 0.799996 0.000119012 0.5
34 2 0.824995 0.0477452 0.5
35 2 0.849996 0.000115153 0.5
36 2 0.874995 0.047743 0.5
37 2 0.899996 0.000110951 0.5
38 2 0.924995 0.0477405 0.5
39 2 0.949997 0.000106935 0.5
40 2 0.974996 0.0477381 0.5
61 2 0.500002 0.0951771 0.5
62 1 0.525 0.142607 0.5
63 2 0.550001 0.0951772 0.5
64 1 0.575 0.142607 0.5
65 2 0.599999 0.0951772 0.5
66 1 0.624999 0.142607 0.5
67 2 0.649998 0.0951771 0.5
68 1 0.675 0.142606 0.5
69 2 0.699997 0.0951768 0.5
70 1 0.725 0.142606 0.5
71 2 0.749996 0.0951764 0.5
72 1 0.775 0.142606 0.5
73 2 0.799995 0.095176 0.5
74 1 0.825 0.142605 0.5
75 2 0.849994 0.0951754 0.5
76 1 0.875001 0.142605 0.5
77 2 0.899993 0.0951748 0.5
78 1 0.925001 0.142605 0.5
79 2 0.949994 0.0951744 0.5
80 1 0.975002 0.142605 0.5
101 1 0.499999 0.190038 0.5
102 1 0.524999 0.237467 0.5
103 1 0.549999 0.190037 0.5
104 1 0.575 0.237465 0.5
105 1 0.6 0.190036 0.5
106 1 0.625002 0.237464 0.5
107 1 0.650001 0.190035 0.5
108 1 0.675004 0.237463 0.5
109 1 0.700002 0.190035 0.5
110 1 0.725006 0.237462 0.5
111 1 0.750004 0.190034 0.5
112 1 0.775009 0.237462 0.5
113 1 0.800005 0.190034 0.5
114 1 0.825011 0.237463 0.5
115 1 0.850006 0.190034 0.5
116 1 0.875013 0.237464 0.5
117 1 0.900008 0.190035 0.5
118 1 0.925014 0.237465 0.5
119 1 0.950008 0.190035 0.5
120 1 0.975015 0.237466 0.5
420 1 0.950024 0.949113 0.5
142 1 0.525 0.332324 0.5
143 1 0.55 0.284894 0.5
144 1 0.575002 0.332321 0.5
145 1 0.600002 0.284892 0.5
146 1 0.625005 0.332318 0.5
147 1 0.650005 0.28489 0.5
148 1 0.675009 0.332316 0.5
149 1 0.700008 0.284889 0.5
150 1 0.725014 0.332315 0.5
151 1 0.750011 0.284889 0.5
152 1 0.775018 0.332315 0.5
153 1 0.800015 0.28489 0.5
154 1 0.825021 0.332317 0.5
155 1 0.850017 0.284891 0.5
156 1 0.875024 0.33232 0.5
157 1 0.900019 0.284893 0.5
158 1 0.925026 0.332324 0.5
159 1 0.95002 0.284896 0.5
160 1 0.975026 0.332329 0.5
419 1 0.900014 0.949105 0.5
182 1 0.525003 0.42718 0.5
183 1 0.550002 0.37975 0.5
184 1 0.575006 0.427173 0.5
185 1 0.600005 0.379745 0.5
186 1 0.625011 0.427167 0.5
187 1 0.65001 0.379741 0.5
188 1 0.675017 0.427164 0.5
189 1 0.700015 0.37974 0.5
190 1 0.725023 0.427163 0.5
191 1 0.750021 0.37974 0.5
192 1 0.775029 0.427165 0.5
193 1 0.800025 0.379742 0.5
194 1 0.825033 0.427169 0.5
195 1 0.850029 0.379746 0.5
196 1 0.875036 0.427176 0.5
197 1 0.900031 0.379751 0.5
198 1 0.925037 0.427183 0.5
199 1 0.950032 0.379757 0.5
200 1 0.975037 0.427191 0.5
418 1 0.850003 0.949097 0.5
222 1 0.525008 0.522033 0.5
223 1 0.550006 0.474602 0.5
224 1 0.575012 0.52202 0.5
225 1 0.600011 0.474593 0.5
226 1 0.625019 0.522011 0.5
227 1 0.650018 0.474588 0.5
228 1 0.675028 0.522006 0.5
229 1 0.700025 0.474585 0.5
230 1 0.725036 0.522005 0.5
231 1 0.750032 0.474586 0.5
232 1 0.775043 0.52201 0.5
233 1 0.800038 0.474591 0.5
234 1 0.825047 0.522019 0.5
235 1 0.850041 0.474598 0.5
236 1 0.875048 0.52203 0.5
237 1 0.900043 0.474608 0.5
238 1 0.925048 0.522042 0.5
239 1 0.950043 0.474617 0.5
240 1 0.975047 0.522053 0.5
281 1 1.00005 0.664354 0.5
262 1 0.525017 0.616884 0.5
263 1 0.550014 0.56945 0.5
264 1 0.575022 0.616861 0.5
265 1 0.60002 0.569435 0.5
266 1 0.625032 0.616844 0.5
267 1 0.65003 0.569425 0.5
268 1 0.675045 0.616837 0.5
269 1 0.700041 0.569423 0.5
270 1 0.725056 0.61684 0.5
271 1 0.750049 0.569427 0.5
272 1 0.77506 0.616852 0.5
273 1 0.800053 0.569437 0.5
274 1 0.825059 0.61687 0.5
275 1 0.850054 0.569451 0.5
276 1 0.875057 0.616887 0.5
277 1 0.900053 0.569465 0.5
278 1 0.925054 0.616903 0.5
279 1 0.950051 0.569479 0.5
280 1 0.975054 0.616916 0.5
411 3 0.500525 0.94935 0.5
302 1 0.525031 0.711732 0.5
303 1 0.550024 0.664291 0.5
304 1 0.575035 0.711687 0.5
305 1 0.600034 0.664264 0.5
306 1 0.625053 0.711658 0.5
307 1 0.65005 0.664249 0.5
308 1 0.675074 0.71165 0.5
309 1 0.700064 0.664249 0.5
310 1 0.725083 0.711667 0.5
311 1 0.75007 0.664263 0.5
312 1 0.775073 0.711702 0.5
313 1 0.800066 0.664287 0.5
314 1 0.825063 0.71173 0.5
315 1 0.85006 0.664309 0.5
316 1 0.875056 0.71175 0.5
317 1 0.900056 0.664326 0.5
318 1 0.925053 0.711765 0.5
319 1 0.950054 0.664341 0.5
320 1 0.975054 0.711778 0.5
417 1 0.799988 0.94909 0.5
342 1 0.525058 0.806593 0.5
343 1 0.550038 0.759122 0.5
344 1 0.575052 0.806482 0.5
345 1 0.600055 0.759066 0.5
346 1 0.625094 0.80642 0.5
347 1 0.650085 0.759042 0.5
348 1 0.675133 0.806425 0.5
349 1 0.700102 0.759058 0.5
350 1 0.725087 0.806529 0.5
351 1 0.750081 0.759115 0.5
352 1 0.775058 0.806577 0.5
353 1 0.800063 0.759152 0.5
354 1 0.825045 0.8066 0.5
355 1 0.850053 0.759174 0.5
356 1 0.875041 0.806614 0.5
357 1 0.900049 0.759189 0.5
358 1 0.925042 0.806626 0.5
359 1 0.950049 0.759202 0.5
360 1 0.975047 0.806636 0.5
381 3 0.500197 0.854204 0.5
382 3 0.525365 0.90177 0.5
383 3 0.550053 0.85394 0.5
384 3 0.575052 0.901156 0.5
385 3 0.60009 0.853783 0.5
386 3 0.625312 0.900918 0.5
387 3 0.650188 0.853738 0.5
388 3 0.675061 0.901394 0.5
389 3 0.700082 0.853949 0.5
390 3 0.72501 0.901441 0.5
391 3 0.750039 0.854006 0.5
392 3 0.775001 0.901461 0.5
393 1 0.800028 0.854028 0.5
394 1 0.82501 0.901466 0.5
395 1 0.850028 0.85404 0.5
396 1 0.875018 0.901474 0.5
397 1 0.900032 0.854049 0.5
398 1 0.925026 0.901482 0.5
399 1 0.950037 0.854058 0.5
400 1 0.975035 0.90149 0.5
421 3 0.594357 1.00175 0.5
412 3 0.550872 0.949776 0.5
413 3 0.600426 0.94779 0.5
414 3 0.649917 0.949118 0.5
415 3 0.699945 0.949071 0.5
416 3 0.749966 0.949088 0.5
201 1 1.00004 0.474627 0.5
1 2 0.999998 0.000103741 0.5
341 1 0.500053 0.759199 0.5
41 2 0.999996 0.0951743 0.5
181 1 0.5 0.379755 0.5
141 1 0.499999 0.284897 0.5
81 1 1.00001 0.190036 0.5
121 1 1.00002 0.284899 0.5
161 1 1.00003 0.379763 0.5
241 1 1.00005 0.569491 0.5
ITEM: TIMESTEP
107
ITEM: NUMBER OF ATOMS
421
ITEM: BOX BOUNDS pp ss pp
0.0000000000000000e+00 2.2653923264628304e+01
2.1879574711865565e-01 2.0463075775521485e+01
-2.8317404080785380e-01 2.8317404080785380e-01
ITEM: ATOMS id type xs ys zs
361 1 6.31396e-05 0.852478 0.5
2 2 0.0249978 0.0476481 0.5
3 2 0.0499993 0.000101778 0.5
4 2 0.075 0.0476474 0.5
5 2 0.100001 0.000101778 0.5
6 2 0.125002 0.0476481 0.5
7 2 0.150002 0.00010355 0.5
8 2 0.175004 0.0476499 0.5
9 2 0.200003 0.000106737 0.5
10 2 0.225005 0.0476523 0.5
11 2 0.250004 0.000110746 0.5
12 2 0.275005 0.0476548 0.5
13 2 0.300004 0.000114941 0.5
14 2 0.325005 0.047657 0.5
15 2 0.350004 0.000118792 0.5
16 2 0.375004 0.0476587 0.5
17 2 0.400004 0.000121961 0.5
18 2 0.425003 0.04766 0.5
19 2 0.450003 0.000124301 0.5
20 2 0.475002 0.047661 0.5
406 1 0.250137 0.94741 0.5
42 1 0.0250057 0.14234 0.5
43 2 0.0499985 0.0949985 0.5
44 1 0.075007 0.142341 0.5
45 2 0.100002 0.0949985 0.5
46 1 0.125008 0.142341 0.5
47 2 0.150004 0.0949985 0.5
48 1 0.175008 0.142342 0.5
49 2 0.200006 0.0949986 0.5
50 1 0.225008 0.142342 0.5
51 2 0.250007 0.0949989 0.5
52 1 0.275007 0.142343 0.5
53 2 0.300006 0.0949995 0.5
54 1 0.325006 0.142343 0.5
55 2 0.350005 0.0950001 0.5
56 1 0.375005 0.142343 0.5
57 2 0.400004 0.0950006 0.5
58 1 0.425004 0.142343 0.5
59 2 0.450003 0.095001 0.5
60 1 0.475003 0.142343 0.5
405 1 0.200113 0.947397 0.5
82 1 0.0250212 0.237026 0.5
83 1 0.0500137 0.189684 0.5
84 1 0.0750203 0.237028 0.5
85 1 0.100014 0.189684 0.5
86 1 0.125019 0.23703 0.5
87 1 0.150013 0.189685 0.5
88 1 0.175017 0.237031 0.5
89 1 0.200012 0.189686 0.5
90 1 0.225014 0.237031 0.5
91 1 0.25001 0.189687 0.5
92 1 0.275011 0.237031 0.5
93 1 0.300008 0.189687 0.5
94 1 0.325009 0.237031 0.5
95 1 0.350006 0.189686 0.5
96 1 0.375007 0.237029 0.5
97 1 0.400005 0.189686 0.5
98 1 0.425006 0.237028 0.5
99 1 0.450004 0.189685 0.5
100 1 0.475005 0.237026 0.5
404 1 0.150093 0.947385 0.5
122 1 0.0250358 0.331714 0.5
123 1 0.0500279 0.284371 0.5
124 1 0.0750338 0.331718 0.5
125 1 0.100026 0.284374 0.5
126 1 0.125031 0.331721 0.5
127 1 0.150023 0.284376 0.5
128 1 0.175027 0.331723 0.5
129 1 0.20002 0.284377 0.5
130 1 0.225023 0.331723 0.5
131 1 0.250017 0.284377 0.5
132 1 0.275019 0.331723 0.5
133 1 0.300013 0.284376 0.5
134 1 0.325015 0.33172 0.5
135 1 0.35001 0.284374 0.5
136 1 0.375012 0.331717 0.5
137 1 0.400008 0.284372 0.5
138 1 0.42501 0.331713 0.5
139 1 0.450007 0.284369 0.5
140 1 0.475009 0.331708 0.5
403 1 0.100077 0.947375 0.5
162 1 0.0250499 0.426402 0.5
163 1 0.0500419 0.379061 0.5
164 1 0.0750476 0.426409 0.5
165 1 0.100039 0.379065 0.5
166 1 0.125045 0.426414 0.5
167 1 0.150036 0.379069 0.5
168 1 0.175041 0.426418 0.5
169 1 0.200031 0.379071 0.5
170 1 0.225036 0.426419 0.5
171 1 0.250027 0.37907 0.5
172 1 0.27503 0.426417 0.5
173 1 0.300022 0.379068 0.5
174 1 0.325025 0.426413 0.5
175 1 0.350017 0.379064 0.5
176 1 0.37502 0.426407 0.5
177 1 0.400014 0.379058 0.5
178 1 0.425016 0.426398 0.5
179 1 0.450012 0.379052 0.5
180 1 0.475015 0.42639 0.5
410 3 0.450354 0.947484 0.5
202 1 0.0250624 0.521091 0.5
203 1 0.0500555 0.473751 0.5
204 1 0.0750611 0.521101 0.5
205 1 0.100053 0.473758 0.5
206 1 0.125059 0.521108 0.5
207 1 0.15005 0.473764 0.5
208 1 0.175057 0.521114 0.5
209 1 0.200046 0.473767 0.5
210 1 0.225053 0.521117 0.5
211 1 0.250041 0.473767 0.5
212 1 0.275047 0.521116 0.5
213 1 0.300035 0.473764 0.5
214 1 0.32504 0.521111 0.5
215 1 0.350028 0.473757 0.5
216 1 0.375033 0.521101 0.5
217 1 0.400023 0.473748 0.5
218 1 0.425026 0.521087 0.5
219 1 0.450019 0.473736 0.5
220 1 0.475023 0.521072 0.5
402 1 0.0500631 0.947365 0.5
242 1 0.0250714 0.61578 0.5
243 1 0.0500673 0.568441 0.5
244 1 0.0750724 0.615791 0.5
245 1 0.100067 0.568451 0.5
246 1 0.125074 0.615801 0.5
247 1 0.150066 0.568459 0.5
248 1 0.175075 0.615809 0.5
249 1 0.200064 0.568464 0.5
250 1 0.225074 0.615815 0.5
251 1 0.250061 0.568467 0.5
252 1 0.275071 0.615818 0.5
253 1 0.300055 0.568465 0.5
254 1 0.325066 0.615815 0.5
255 1 0.350047 0.568457 0.5
256 1 0.375056 0.615803 0.5
257 1 0.400038 0.568443 0.5
258 1 0.425044 0.615782 0.5
259 1 0.450031 0.568423 0.5
260 1 0.475036 0.615756 0.5
409 1 0.400268 0.947459 0.5
282 1 0.0250748 0.710465 0.5
283 1 0.0500752 0.663129 0.5
284 1 0.0750796 0.710477 0.5
285 1 0.100078 0.66314 0.5
286 1 0.125086 0.710488 0.5
287 1 0.150082 0.663151 0.5
288 1 0.175092 0.7105 0.5
289 1 0.200085 0.66316 0.5
290 1 0.225098 0.71051 0.5
291 1 0.250087 0.663167 0.5
292 1 0.275103 0.710518 0.5
293 1 0.300085 0.663169 0.5
294 1 0.325104 0.710522 0.5
295 1 0.350079 0.663165 0.5
296 1 0.375099 0.710517 0.5
297 1 0.400068 0.66315 0.5
298 1 0.425084 0.710497 0.5
299 1 0.450052 0.663119 0.5
300 1 0.475061 0.710452 0.5
321 1 7.12701e-05 0.7578 0.5
322 1 0.0250717 0.805145 0.5
323 1 0.0500773 0.757812 0.5
324 1 0.0750807 0.805157 0.5
325 1 0.100085 0.757823 0.5
326 1 0.125092 0.805168 0.5
327 1 0.150094 0.757836 0.5
328 1 0.175104 0.805181 0.5
329 1 0.200104 0.757848 0.5
330 1 0.225119 0.805195 0.5
331 1 0.250115 0.75786 0.5
332 1 0.275134 0.805208 0.5
333 1 0.300123 0.75787 0.5
334 1 0.32515 0.805222 0.5
335 1 0.350128 0.757876 0.5
336 1 0.375162 0.805232 0.5
337 1 0.400125 0.757873 0.5
338 1 0.425164 0.805233 0.5
339 1 0.450107 0.757848 0.5
340 1 0.475143 0.805209 0.5
408 1 0.350211 0.94744 0.5
362 1 0.0250629 0.899823 0.5
363 1 0.0500731 0.852489 0.5
364 1 0.075075 0.899833 0.5
365 1 0.100085 0.8525 0.5
366 1 0.125089 0.899843 0.5
367 1 0.150099 0.852512 0.5
368 1 0.175106 0.899855 0.5
369 1 0.200116 0.852525 0.5
370 1 0.225127 0.899869 0.5
371 1 0.250135 0.852539 0.5
372 1 0.275152 0.899884 0.5
373 1 0.300158 0.852555 0.5
374 1 0.325184 0.899901 0.5
375 1 0.350182 0.852572 0.5
376 1 0.375223 0.899921 0.5
377 1 0.400206 0.852589 0.5
378 1 0.42527 0.899945 0.5
379 3 0.45022 0.852601 0.5
380 3 0.475326 0.899985 0.5
407 1 0.300169 0.947424 0.5
401 1 5.11223e-05 0.947356 0.5
101 1 0.500003 0.189684 0.5
241 1 6.77712e-05 0.56843 0.5
161 1 4.36444e-05 0.379055 0.5
121 1 2.90072e-05 0.284368 0.5
81 1 1.35246e-05 0.189683 0.5
141 1 0.500007 0.284366 0.5
281 1 7.30115e-05 0.663117 0.5
201 1 5.71589e-05 0.473742 0.5
21 2 0.500002 0.000125803 0.5
22 2 0.525001 0.0476616 0.5