ITEM: TIMESTEP
0
ITEM: NUMBER OF ATOMS
421
ITEM: BOX BOUNDS pp ss pp
0.0000000000000000e+00 2.2653923264628304e+01
2.1879574711865565e-01 2.0362007581287205e+01
-2.8317404080785380e-01 2.8317404080785380e-01
ITEM: ATOMS id type xs ys zs
221 1 0.499997 0.476151 0.5
2 2 0.0249978 0.0478872 0.5
3 2 0.0499993 0.000102288 0.5
4 2 0.075 0.0478865 0.5
5 2 0.100001 0.000102288 0.5
6 2 0.125002 0.0478872 0.5
7 2 0.150002 0.000104069 0.5
8 2 0.175004 0.047889 0.5
9 2 0.200003 0.000107273 0.5
10 2 0.225005 0.0478914 0.5
11 2 0.250004 0.000111302 0.5
12 2 0.275005 0.0478939 0.5
13 2 0.300004 0.000115517 0.5
14 2 0.325005 0.0478961 0.5
15 2 0.350004 0.000119388 0.5
16 2 0.375004 0.0478978 0.5
17 2 0.400004 0.000122573 0.5
18 2 0.425003 0.0478991 0.5
19 2 0.450003 0.000124925 0.5
20 2 0.475002 0.0479001 0.5
406 1 0.250001 0.952205 0.5
42 1 0.0249972 0.143064 0.5
43 2 0.0499985 0.0954752 0.5
44 1 0.075 0.143065 0.5
45 2 0.100002 0.0954752 0.5
46 1 0.125003 0.143064 0.5
47 2 0.150004 0.0954751 0.5
48 1 0.175005 0.143062 0.5
49 2 0.200006 0.0954752 0.5
50 1 0.225007 0.14306 0.5
51 2 0.250007 0.0954755 0.5
52 1 0.275007 0.143059 0.5
53 2 0.300006 0.0954761 0.5
54 1 0.325007 0.143059 0.5
55 2 0.350005 0.0954767 0.5
56 1 0.375006 0.14306 0.5
57 2 0.400004 0.0954772 0.5
58 1 0.425004 0.143059 0.5
59 2 0.450003 0.0954776 0.5
60 1 0.475003 0.143059 0.5
405 1 0.199986 0.952219 0.5
82 1 0.0249986 0.238243 0.5
83 1 0.049999 0.190658 0.5
84 1 0.075 0.238244 0.5
85 1 0.100001 0.190658 0.5
86 1 0.125001 0.238243 0.5
87 1 0.150003 0.190656 0.5
88 1 0.175003 0.238241 0.5
89 1 0.200005 0.190654 0.5
90 1 0.225006 0.238238 0.5
91 1 0.250007 0.190651 0.5
92 1 0.275008 0.238234 0.5
93 1 0.300008 0.190649 0.5
94 1 0.325009 0.238232 0.5
95 1 0.350007 0.190648 0.5
96 1 0.375008 0.238231 0.5
97 1 0.400006 0.190648 0.5
98 1 0.425007 0.238231 0.5
99 1 0.450004 0.190649 0.5
100 1 0.475005 0.238231 0.5
404 1 0.14998 0.952193 0.5
122 1 0.024999 0.333404 0.5
123 1 0.0499995 0.285822 0.5
124 1 0.075 0.333405 0.5
125 1 0.100001 0.285822 0.5
126 1 0.125001 0.333404 0.5
127 1 0.150002 0.285821 0.5
128 1 0.175002 0.333402 0.5
129 1 0.200004 0.285818 0.5
130 1 0.225005 0.3334 0.5
131 1 0.250006 0.285815 0.5
132 1 0.275007 0.333397 0.5
133 1 0.300009 0.285812 0.5
134 1 0.325011 0.333394 0.5
135 1 0.35001 0.28581 0.5
136 1 0.375012 0.333391 0.5
137 1 0.40001 0.285809 0.5
138 1 0.425013 0.333391 0.5
139 1 0.450008 0.285808 0.5
140 1 0.475011 0.333392 0.5
403 1 0.0999905 0.952162 0.5
162 1 0.024999 0.428573 0.5
163 1 0.0499993 0.380986 0.5
164 1 0.075 0.428573 0.5
165 1 0.100001 0.380986 0.5
166 1 0.125001 0.428573 0.5
167 1 0.150001 0.380985 0.5
168 1 0.175002 0.428571 0.5
169 1 0.200003 0.380983 0.5
170 1 0.225005 0.42857 0.5
171 1 0.250006 0.380981 0.5
172 1 0.275008 0.428567 0.5
173 1 0.300009 0.380978 0.5
174 1 0.325012 0.428565 0.5
175 1 0.350014 0.380976 0.5
176 1 0.375013 0.428563 0.5
177 1 0.400015 0.380975 0.5
178 1 0.425009 0.428567 0.5
179 1 0.450013 0.380977 0.5
180 1 0.475002 0.42857 0.5
410 3 0.450049 0.952183 0.5
202 1 0.0249985 0.523735 0.5
203 1 0.0499994 0.476155 0.5
204 1 0.075 0.523736 0.5
205 1 0.100001 0.476155 0.5
206 1 0.125002 0.523735 0.5
207 1 0.150002 0.476154 0.5
208 1 0.175004 0.523735 0.5
209 1 0.200004 0.476153 0.5
210 1 0.225005 0.523733 0.5
211 1 0.250007 0.47615 0.5
212 1 0.275002 0.523734 0.5
213 1 0.300008 0.476149 0.5
214 1 0.324995 0.523737 0.5
215 1 0.350004 0.47615 0.5
216 1 0.374989 0.523739 0.5
217 1 0.399999 0.476154 0.5
218 1 0.424989 0.523735 0.5
219 1 0.449996 0.476154 0.5
220 1 0.474993 0.52373 0.5
402 1 0.0500095 0.952162 0.5
242 1 0.0249956 0.618901 0.5
243 1 0.0499984 0.571322 0.5
244 1 0.075 0.618902 0.5
245 1 0.100002 0.571322 0.5
246 1 0.125004 0.618901 0.5
247 1 0.150005 0.571322 0.5
248 1 0.175003 0.618903 0.5
249 1 0.200003 0.571322 0.5
250 1 0.224995 0.618909 0.5
251 1 0.249997 0.571324 0.5
252 1 0.274984 0.618916 0.5
253 1 0.299988 0.57133 0.5
254 1 0.324976 0.618916 0.5
255 1 0.349981 0.57133 0.5
256 1 0.374979 0.618911 0.5
257 1 0.399983 0.571325 0.5
258 1 0.424985 0.618901 0.5
259 1 0.449988 0.571317 0.5
260 1 0.474991 0.618895 0.5
409 1 0.400035 0.952162 0.5
282 1 0.024998 0.714058 0.5
283 1 0.0499969 0.66648 0.5
284 1 0.075 0.714053 0.5
285 1 0.100003 0.66648 0.5
286 1 0.125002 0.714058 0.5
287 1 0.150003 0.666484 0.5
288 1 0.174995 0.71407 0.5
289 1 0.199995 0.666494 0.5
290 1 0.224983 0.714083 0.5
291 1 0.249982 0.666502 0.5
292 1 0.274976 0.714086 0.5
293 1 0.299974 0.666503 0.5
294 1 0.324978 0.71408 0.5
295 1 0.349977 0.666498 0.5
296 1 0.374984 0.714071 0.5
297 1 0.399983 0.666488 0.5
298 1 0.42499 0.714065 0.5
299 1 0.449989 0.666483 0.5
300 1 0.474995 0.71406 0.5
321 1 3.64377e-06 0.76165 0.5
322 1 0.025002 0.809231 0.5
323 1 0.0499996 0.761635 0.5
324 1 0.075 0.80922 0.5
325 1 0.1 0.761635 0.5
326 1 0.124998 0.809231 0.5
327 1 0.149996 0.76165 0.5
328 1 0.174989 0.809252 0.5
329 1 0.199986 0.761666 0.5
330 1 0.224981 0.809264 0.5
331 1 0.249978 0.761673 0.5
332 1 0.274982 0.809261 0.5
333 1 0.29998 0.761668 0.5
334 1 0.32499 0.809249 0.5
335 1 0.349986 0.761659 0.5
336 1 0.375003 0.809241 0.5
337 1 0.399995 0.761653 0.5
338 1 0.425016 0.809239 0.5
339 1 0.450003 0.761643 0.5
340 1 0.475017 0.80923 0.5
408 1 0.350024 0.952169 0.5
362 1 0.0250069 0.904395 0.5
363 1 0.0500014 0.856803 0.5
364 1 0.075 0.904378 0.5
365 1 0.0999986 0.856803 0.5
366 1 0.124993 0.904395 0.5
367 1 0.149994 0.856829 0.5
368 1 0.174988 0.904427 0.5
369 1 0.199985 0.856849 0.5
370 1 0.224986 0.904436 0.5
371 1 0.249982 0.856847 0.5
372 1 0.274994 0.904416 0.5
373 1 0.299993 0.856834 0.5
374 1 0.32501 0.904399 0.5
375 1 0.350007 0.856821 0.5
376 1 0.375023 0.904392 0.5
377 1 0.400022 0.856816 0.5
378 1 0.425037 0.904396 0.5
379 3 0.450032 0.856822 0.5
380 3 0.475046 0.904432 0.5
407 1 0.300014 0.952176 0.5
261 1 0.499993 0.571312 0.5
401 1 2.0232e-05 0.952193 0.5
361 1 6.38311e-06 0.856829 0.5
301 1 0.499992 0.666476 0.5
21 2 0.500002 0.000126434 0.5
22 2 0.525001 0.0479008 0.5
23 2 0.550001 0.000127161 0.5
24 2 0.575 0.047901 0.5
25 2 0.599999 0.000127161 0.5
26 2 0.624999 0.0479008 0.5
27 2 0.649998 0.000126434 0.5
28 2 0.674998 0.0479001 0.5
29 2 0.699997 0.000124925 0.5
30 2 0.724997 0.0478991 0.5
31 2 0.749996 0.000122573 0.5
32 2 0.774996 0.0478978 0.5
33 2 0.799996 0.000119388 0.5
34 2 0.824995 0.0478961 0.5
35 2 0.849996 0.000115517 0.5
36 2 0.874995 0.0478939 0.5
37 2 0.899996 0.000111302 0.5
38 2 0.924995 0.0478914 0.5
39 2 0.949997 0.000107273 0.5
40 2 0.974996 0.047889 0.5
61 2 0.500002 0.0954779 0.5
62 1 0.525001 0.143059 0.5
63 2 0.550001 0.095478 0.5
64 1 0.575 0.143059 0.5
65 2 0.599999 0.095478 0.5
66 1 0.624999 0.143059 0.5
67 2 0.649998 0.0954779 0.5
68 1 0.674997 0.143059 0.5
69 2 0.699997 0.0954776 0.5
70 1 0.724996 0.143059 0.5
71 2 0.749996 0.0954772 0.5
72 1 0.774994 0.14306 0.5
73 2 0.799995 0.0954767 0.5
74 1 0.824993 0.143059 0.5
75 2 0.849994 0.0954761 0.5
76 1 0.874993 0.143059 0.5
77 2 0.899993 0.0954755 0.5
78 1 0.924993 0.14306 0.5
79 2 0.949994 0.0954752 0.5
80 1 0.974995 0.143062 0.5
101 1 0.500002 0.190649 0.5
102 1 0.525002 0.23823 0.5
103 1 0.550001 0.190649 0.5
104 1 0.575 0.23823 0.5
105 1 0.599999 0.190649 0.5
106 1 0.624998 0.23823 0.5
107 1 0.649998 0.190649 0.5
108 1 0.674995 0.238231 0.5
109 1 0.699996 0.190649 0.5
110 1 0.724993 0.238231 0.5
111 1 0.749994 0.190648 0.5
112 1 0.774992 0.238231 0.5
113 1 0.799993 0.190648 0.5
114 1 0.824991 0.238232 0.5
115 1 0.849992 0.190649 0.5
116 1 0.874992 0.238234 0.5
117 1 0.899993 0.190651 0.5
118 1 0.924994 0.238238 0.5
119 1 0.949995 0.190654 0.5
120 1 0.974997 0.238241 0.5
420 1 0.950014 0.952219 0.5
142 1 0.525006 0.333395 0.5
143 1 0.550003 0.285809 0.5
144 1 0.575 0.333398 0.5
145 1 0.599997 0.285809 0.5
146 1 0.624994 0.333395 0.5
147 1 0.649994 0.285809 0.5
148 1 0.674989 0.333392 0.5
149 1 0.699992 0.285808 0.5
150 1 0.724987 0.333391 0.5
151 1 0.74999 0.285809 0.5
152 1 0.774988 0.333391 0.5
153 1 0.79999 0.28581 0.5
154 1 0.824989 0.333394 0.5
155 1 0.849991 0.285812 0.5
156 1 0.874993 0.333397 0.5
157 1 0.899994 0.285815 0.5
158 1 0.924995 0.3334 0.5
159 1 0.949996 0.285818 0.5
160 1 0.974998 0.333402 0.5
419 1 0.899999 0.952205 0.5
182 1 0.525001 0.428571 0.5
183 1 0.550001 0.380982 0.5
184 1 0.575 0.42857 0.5
185 1 0.599999 0.380982 0.5
186 1 0.624999 0.428571 0.5
187 1 0.649993 0.380982 0.5
188 1 0.674998 0.42857 0.5
189 1 0.699987 0.380977 0.5
190 1 0.724991 0.428567 0.5
191 1 0.749985 0.380975 0.5
192 1 0.774987 0.428563 0.5
193 1 0.799986 0.380976 0.5
194 1 0.824988 0.428565 0.5
195 1 0.849991 0.380978 0.5
196 1 0.874992 0.428567 0.5
197 1 0.899994 0.380981 0.5
198 1 0.924995 0.42857 0.5
199 1 0.949997 0.380983 0.5
200 1 0.974998 0.428571 0.5
418 1 0.849986 0.952176 0.5
222 1 0.524995 0.523726 0.5
223 1 0.549999 0.476151 0.5
224 1 0.575 0.523725 0.5
225 1 0.600001 0.476151 0.5
226 1 0.625005 0.523726 0.5
227 1 0.650003 0.476151 0.5
228 1 0.675007 0.52373 0.5
229 1 0.700004 0.476154 0.5
230 1 0.725011 0.523735 0.5
231 1 0.750001 0.476154 0.5
232 1 0.775011 0.523739 0.5
233 1 0.799996 0.47615 0.5
234 1 0.825005 0.523737 0.5
235 1 0.849992 0.476149 0.5
236 1 0.874998 0.523734 0.5
237 1 0.899993 0.47615 0.5
238 1 0.924995 0.523733 0.5
239 1 0.949996 0.476153 0.5
240 1 0.974996 0.523735 0.5
281 1 0.999997 0.666484 0.5
262 1 0.524994 0.618892 0.5
263 1 0.549998 0.57131 0.5
264 1 0.575 0.618891 0.5
265 1 0.600002 0.57131 0.5
266 1 0.625006 0.618892 0.5
267 1 0.650007 0.571312 0.5
268 1 0.675009 0.618895 0.5
269 1 0.700012 0.571317 0.5
270 1 0.725015 0.618901 0.5
271 1 0.750017 0.571325 0.5
272 1 0.775021 0.618911 0.5
273 1 0.800019 0.57133 0.5
274 1 0.825024 0.618916 0.5
275 1 0.850012 0.57133 0.5
276 1 0.875016 0.618916 0.5
277 1 0.900003 0.571324 0.5
278 1 0.925005 0.618909 0.5
279 1 0.949997 0.571322 0.5
280 1 0.974997 0.618903 0.5
411 3 0.500093 0.952262 0.5
302 1 0.525 0.714054 0.5
303 1 0.549997 0.666471 0.5
304 1 0.575 0.714049 0.5
305 1 0.600003 0.666471 0.5
306 1 0.625 0.714054 0.5
307 1 0.650008 0.666476 0.5
308 1 0.675005 0.71406 0.5
309 1 0.700011 0.666483 0.5
310 1 0.72501 0.714065 0.5
311 1 0.750017 0.666488 0.5
312 1 0.775016 0.714071 0.5
313 1 0.800023 0.666498 0.5
314 1 0.825022 0.71408 0.5
315 1 0.850026 0.666503 0.5
316 1 0.875024 0.714086 0.5
317 1 0.900018 0.666502 0.5
318 1 0.925017 0.714083 0.5
319 1 0.950005 0.666494 0.5
320 1 0.975005 0.71407 0.5
417 1 0.799976 0.952169 0.5
342 1 0.525012 0.809233 0.5
343 1 0.550004 0.761634 0.5
344 1 0.575 0.809238 0.5
345 1 0.599996 0.761634 0.5
346 1 0.624988 0.809233 0.5
347 1 0.649991 0.761635 0.5
348 1 0.674983 0.80923 0.5
349 1 0.699997 0.761643 0.5
350 1 0.724984 0.809239 0.5
351 1 0.750005 0.761653 0.5
352 1 0.774997 0.809241 0.5
353 1 0.800014 0.761659 0.5
354 1 0.82501 0.809249 0.5
355 1 0.85002 0.761668 0.5
356 1 0.875018 0.809261 0.5
357 1 0.900022 0.761673 0.5
358 1 0.925019 0.809264 0.5
359 1 0.950014 0.761666 0.5
360 1 0.975011 0.809252 0.5
381 3 0.500017 0.85682 0.5
382 3 0.525009 0.904411 0.5
383 3 0.550006 0.856825 0.5
384 3 0.575 0.904426 0.5
385 3 0.599994 0.856825 0.5
386 3 0.624991 0.904411 0.5
387 3 0.649983 0.85682 0.5
388 3 0.674954 0.904432 0.5
389 3 0.699968 0.856822 0.5
390 3 0.724963 0.904396 0.5
391 3 0.749978 0.856816 0.5
392 3 0.774977 0.904392 0.5
393 1 0.799993 0.856821 0.5
394 1 0.82499 0.904399 0.5
395 1 0.850007 0.856834 0.5
396 1 0.875006 0.904416 0.5
397 1 0.900018 0.856847 0.5
398 1 0.925014 0.904436 0.5
399 1 0.950015 0.856849 0.5
400 1 0.975012 0.904427 0.5
421 3 0.575 0.999898 0.5
412 3 0.549989 0.952079 0.5
413 3 0.600011 0.952079 0.5
414 3 0.649907 0.952262 0.5
415 3 0.699951 0.952183 0.5
416 3 0.749965 0.952162 0.5
201 1 0.999998 0.476154 0.5
1 2 0.999998 0.000104069 0.5
341 1 0.500009 0.761635 0.5
41 2 0.999996 0.0954751 0.5
181 1 0.500007 0.380982 0.5
141 1 0.500006 0.285809 0.5
81 1 0.999997 0.190656 0.5
121 1 0.999998 0.285821 0.5
161 1 0.999999 0.380985 0.5
241 1 0.999995 0.571322 0.5
ITEM: TIMESTEP
78
ITEM: NUMBER OF ATOMS
421
ITEM: BOX BOUNDS pp ss pp
0.0000000000000000e+00 2.2653923264628304e+01
2.1879574711865565e-01 2.0362007581287205e+01
-2.8317404080785380e-01 2.8317404080785380e-01
ITEM: ATOMS id type xs ys zs
221 1 0.499998 0.476113 0.5
2 2 0.0249978 0.0478872 0.5
3 2 0.0499993 0.000102288 0.5
4 2 0.075 0.0478865 0.5
5 2 0.100001 0.000102288 0.5
6 2 0.125002 0.0478872 0.5
7 2 0.150002 0.000104069 0.5
8 2 0.175004 0.047889 0.5
9 2 0.200003 0.000107273 0.5
10 2 0.225005 0.0478914 0.5
11 2 0.250004 0.000111302 0.5
12 2 0.275005 0.0478939 0.5
13 2 0.300004 0.000115517 0.5
14 2 0.325005 0.0478961 0.5
15 2 0.350004 0.000119388 0.5
16 2 0.375004 0.0478978 0.5
17 2 0.400004 0.000122573 0.5
18 2 0.425003 0.0478991 0.5
19 2 0.450003 0.000124925 0.5
20 2 0.475002 0.0479001 0.5
406 1 0.250015 0.952118 0.5
42 1 0.0249983 0.143055 0.5
43 2 0.0499985 0.0954752 0.5
44 1 0.075 0.143055 0.5
45 2 0.100002 0.0954752 0.5
46 1 0.125002 0.143055 0.5
47 2 0.150004 0.0954751 0.5
48 1 0.175003 0.143056 0.5
49 2 0.200006 0.0954752 0.5
50 1 0.225004 0.143056 0.5
51 2 0.250007 0.0954755 0.5
52 1 0.275004 0.143057 0.5
53 2 0.300006 0.0954761 0.5
54 1 0.325003 0.143057 0.5
55 2 0.350005 0.0954767 0.5
56 1 0.375003 0.143058 0.5
57 2 0.400004 0.0954772 0.5
58 1 0.425002 0.143058 0.5
59 2 0.450003 0.0954776 0.5
60 1 0.475001 0.143058 0.5
405 1 0.20001 0.952118 0.5
82 1 0.0249999 0.238217 0.5
83 1 0.0499996 0.190636 0.5
84 1 0.075 0.238217 0.5
85 1 0.1 0.190636 0.5
86 1 0.125 0.238217 0.5
87 1 0.150001 0.190636 0.5
88 1 0.175 0.238217 0.5
89 1 0.200001 0.190637 0.5
90 1 0.225 0.238218 0.5
91 1 0.250002 0.190637 0.5
92 1 0.275 0.238218 0.5
93 1 0.300002 0.190638 0.5
94 1 0.325 0.238218 0.5
95 1 0.350001 0.190638 0.5
96 1 0.375 0.238218 0.5
97 1 0.400001 0.190638 0.5
98 1 0.425 0.238219 0.5
99 1 0.450001 0.190639 0.5
100 1 0.475 0.238219 0.5
404 1 0.150006 0.952117 0.5
122 1 0.0250006 0.33338 0.5
123 1 0.0500002 0.285798 0.5
124 1 0.075 0.33338 0.5
125 1 0.0999998 0.285798 0.5
126 1 0.124999 0.33338 0.5
127 1 0.15 0.285798 0.5
128 1 0.174999 0.333379 0.5
129 1 0.199999 0.285798 0.5
130 1 0.224998 0.333379 0.5
131 1 0.249999 0.285799 0.5
132 1 0.274998 0.333379 0.5
133 1 0.299999 0.285799 0.5
134 1 0.324998 0.333379 0.5
135 1 0.349999 0.285799 0.5
136 1 0.374998 0.333378 0.5
137 1 0.399999 0.285798 0.5
138 1 0.424998 0.333378 0.5
139 1 0.449999 0.285798 0.5
140 1 0.474999 0.333378 0.5
403 1 0.100002 0.952117 0.5
162 1 0.0250008 0.428542 0.5
163 1 0.0500004 0.380961 0.5
164 1 0.075 0.428542 0.5
165 1 0.0999996 0.380961 0.5
166 1 0.124999 0.428542 0.5
167 1 0.149999 0.380961 0.5
168 1 0.174998 0.428542 0.5
169 1 0.199998 0.380961 0.5
170 1 0.224998 0.428541 0.5
171 1 0.249998 0.38096 0.5
172 1 0.274997 0.42854 0.5
173 1 0.299997 0.380959 0.5
174 1 0.324997 0.428539 0.5
175 1 0.349997 0.380959 0.5
176 1 0.374996 0.428538 0.5
177 1 0.399997 0.380958 0.5
178 1 0.424997 0.428537 0.5
179 1 0.449998 0.380957 0.5
180 1 0.474998 0.428536 0.5
410 3 0.450065 0.952126 0.5
202 1 0.0250006 0.523705 0.5
203 1 0.0500004 0.476124 0.5
204 1 0.075 0.523705 0.5
205 1 0.0999996 0.476124 0.5
206 1 0.124999 0.523705 0.5
207 1 0.149999 0.476123 0.5
208 1 0.174999 0.523704 0.5
209 1 0.199998 0.476123 0.5
210 1 0.224998 0.523703 0.5
211 1 0.249997 0.476121 0.5
212 1 0.274997 0.523701 0.5
213 1 0.299996 0.47612 0.5
214 1 0.324996 0.523699 0.5
215 1 0.349996 0.476118 0.5
216 1 0.374996 0.523696 0.5
217 1 0.399996 0.476116 0.5
218 1 0.424996 0.523694 0.5
219 1 0.449997 0.476115 0.5
220 1 0.474997 0.523692 0.5
402 1 0.0499981 0.952117 0.5
242 1 0.0249999 0.618866 0.5
243 1 0.0500001 0.571286 0.5
244 1 0.075 0.618866 0.5
245 1 0.0999999 0.571286 0.5
246 1 0.125 0.618866 0.5
247 1 0.149999 0.571285 0.5
248 1 0.175 0.618865 0.5
249 1 0.199999 0.571284 0.5
250 1 0.225 0.618864 0.5
251 1 0.249998 0.571283 0.5
252 1 0.274999 0.618863 0.5
253 1 0.299997 0.571281 0.5
254 1 0.324998 0.61886 0.5
255 1 0.349996 0.571278 0.5
256 1 0.374996 0.618855 0.5
257 1 0.399995 0.571274 0.5
258 1 0.424995 0.618851 0.5
259 1 0.449996 0.571271 0.5
260 1 0.474996 0.618846 0.5
409 1 0.400043 0.952122 0.5
282 1 0.0249987 0.714025 0.5
283 1 0.0499996 0.666446 0.5
284 1 0.075 0.714025 0.5
285 1 0.1 0.666446 0.5
286 1 0.125001 0.714025 0.5
287 1 0.150001 0.666446 0.5
288 1 0.175003 0.714025 0.5
289 1 0.200001 0.666445 0.5
290 1 0.225003 0.714025 0.5
291 1 0.250001 0.666444 0.5
292 1 0.275003 0.714024 0.5
293 1 0.3 0.666442 0.5
294 1 0.325002 0.714021 0.5
295 1 0.349998 0.666438 0.5
296 1 0.375 0.714016 0.5
297 1 0.399996 0.666432 0.5
298 1 0.424996 0.714008 0.5
299 1 0.449995 0.666426 0.5
300 1 0.474995 0.713999 0.5
321 1 -3.01784e-06 0.761604 0.5
322 1 0.0249973 0.809182 0.5
323 1 0.049999 0.761604 0.5
324 1 0.075 0.809182 0.5
325 1 0.100001 0.761604 0.5
326 1 0.125003 0.809182 0.5
327 1 0.150003 0.761604 0.5
328 1 0.175005 0.809182 0.5
329 1 0.200005 0.761604 0.5
330 1 0.225008 0.809182 0.5
331 1 0.250006 0.761604 0.5
332 1 0.27501 0.809183 0.5
333 1 0.300007 0.761603 0.5
334 1 0.325012 0.809182 0.5
335 1 0.350006 0.761601 0.5
336 1 0.375011 0.80918 0.5
337 1 0.400003 0.761595 0.5
338 1 0.425007 0.809174 0.5
339 1 0.449997 0.761581 0.5
340 1 0.474996 0.809152 0.5
408 1 0.35003 0.95212 0.5
362 1 0.0249963 0.904338 0.5
363 1 0.0499984 0.856759 0.5
364 1 0.075 0.904338 0.5
365 1 0.100002 0.856759 0.5
366 1 0.125004 0.904338 0.5
367 1 0.150005 0.856759 0.5
368 1 0.175008 0.904338 0.5
369 1 0.200008 0.85676 0.5
370 1 0.225012 0.904339 0.5
371 1 0.250012 0.85676 0.5
372 1 0.275017 0.90434 0.5
373 1 0.300016 0.856761 0.5
374 1 0.325022 0.904341 0.5
375 1 0.350019 0.856762 0.5
376 1 0.375029 0.904343 0.5
377 1 0.40002 0.856761 0.5
378 1 0.425036 0.904345 0.5
379 3 0.450017 0.856755 0.5
380 3 0.475038 0.904347 0.5
407 1 0.300022 0.952119 0.5
261 1 0.499997 0.571268 0.5
401 1 -5.87133e-06 0.952117 0.5
361 1 -4.9375e-06 0.856759 0.5
301 1 0.499996 0.66642 0.5
21 2 0.500002 0.000126434 0.5
22 2 0.525001 0.0479008 0.5
23 2 0.550001 0.000127161 0.5
24 2 0.575 0.047901 0.5
25 2 0.599999 0.000127161 0.5
26 2 0.624999 0.0479008 0.5
27 2 0.649998 0.000126434 0.5
28 2 0.674998 0.0479001 0.5
29 2 0.699997 0.000124925 0.5
30 2 0.724997 0.0478991 0.5
31 2 0.749996 0.000122573 0.5
32 2 0.774996 0.0478978 0.5
33 2 0.799996 0.000119388 0.5
34 2 0.824995 0.0478961 0.5
35 2 0.849996 0.000115517 0.5
36 2 0.874995 0.0478939 0.5
37 2 0.899996 0.000111302 0.5
38 2 0.924995 0.0478914 0.5
39 2 0.949997 0.000107273 0.5
40 2 0.974996 0.047889 0.5
61 2 0.500002 0.0954779 0.5
62 1 0.525001 0.143058 0.5
63 2 0.550001 0.095478 0.5
64 1 0.575 0.143058 0.5
65 2 0.599999 0.095478 0.5
66 1 0.624999 0.143058 0.5
67 2 0.649998 0.0954779 0.5
68 1 0.674999 0.143058 0.5
69 2 0.699997 0.0954776 0.5
70 1 0.724998 0.143058 0.5
71 2 0.749996 0.0954772 0.5
72 1 0.774997 0.143058 0.5
73 2 0.799995 0.0954767 0.5
74 1 0.824997 0.143057 0.5
75 2 0.849994 0.0954761 0.5
76 1 0.874996 0.143057 0.5
77 2 0.899993 0.0954755 0.5
78 1 0.924996 0.143056 0.5
79 2 0.949994 0.0954752 0.5
80 1 0.974997 0.143056 0.5
101 1 0.5 0.190639 0.5
102 1 0.525 0.238219 0.5
103 1 0.55 0.190639 0.5
104 1 0.575 0.238219 0.5
105 1 0.6 0.190639 0.5
106 1 0.625 0.238219 0.5
107 1 0.65 0.190639 0.5
108 1 0.675 0.238219 0.5
109 1 0.699999 0.190639 0.5
110 1 0.725 0.238219 0.5
111 1 0.749999 0.190638 0.5
112 1 0.775 0.238218 0.5
113 1 0.799999 0.190638 0.5
114 1 0.825 0.238218 0.5
115 1 0.849998 0.190638 0.5
116 1 0.875 0.238218 0.5
117 1 0.899998 0.190637 0.5
118 1 0.925 0.238218 0.5
119 1 0.949999 0.190637 0.5
120 1 0.975 0.238217 0.5
420 1 0.94999 0.952118 0.5
142 1 0.524999 0.333378 0.5
143 1 0.55 0.285798 0.5
144 1 0.575 0.333377 0.5
145 1 0.6 0.285798 0.5
146 1 0.625001 0.333378 0.5
147 1 0.650001 0.285798 0.5
148 1 0.675001 0.333378 0.5
149 1 0.700001 0.285798 0.5
150 1 0.725002 0.333378 0.5
151 1 0.750001 0.285798 0.5
152 1 0.775002 0.333378 0.5
153 1 0.800001 0.285799 0.5
154 1 0.825002 0.333379 0.5
155 1 0.850001 0.285799 0.5
156 1 0.875002 0.333379 0.5
157 1 0.900001 0.285799 0.5
158 1 0.925002 0.333379 0.5
159 1 0.950001 0.285798 0.5
160 1 0.975001 0.333379 0.5
419 1 0.899985 0.952118 0.5
182 1 0.524999 0.428535 0.5
183 1 0.549999 0.380956 0.5
184 1 0.575 0.428535 0.5
185 1 0.600001 0.380956 0.5
186 1 0.625001 0.428535 0.5
187 1 0.650001 0.380957 0.5
188 1 0.675002 0.428536 0.5
189 1 0.700002 0.380957 0.5
190 1 0.725003 0.428537 0.5
191 1 0.750003 0.380958 0.5
192 1 0.775004 0.428538 0.5
193 1 0.800003 0.380959 0.5
194 1 0.825003 0.428539 0.5
195 1 0.850003 0.380959 0.5
196 1 0.875003 0.42854 0.5
197 1 0.900002 0.38096 0.5
198 1 0.925002 0.428541 0.5
199 1 0.950002 0.380961 0.5
200 1 0.975002 0.428542 0.5
418 1 0.849978 0.952119 0.5
222 1 0.524998 0.523691 0.5
223 1 0.549999 0.476113 0.5
224 1 0.575 0.52369 0.5
225 1 0.600001 0.476113 0.5
226 1 0.625002 0.523691 0.5
227 1 0.650002 0.476113 0.5
228 1 0.675003 0.523692 0.5
229 1 0.700003 0.476115 0.5
230 1 0.725004 0.523694 0.5
231 1 0.750004 0.476116 0.5
232 1 0.775004 0.523696 0.5
233 1 0.800004 0.476118 0.5
234 1 0.825004 0.523699 0.5
235 1 0.850004 0.47612 0.5
236 1 0.875003 0.523701 0.5
237 1 0.900003 0.476121 0.5
238 1 0.925002 0.523703 0.5
239 1 0.950002 0.476123 0.5
240 1 0.975001 0.523704 0.5
281 1 0.999999 0.666446 0.5
262 1 0.524997 0.618843 0.5
263 1 0.549999 0.571267 0.5
264 1 0.575 0.618842 0.5
265 1 0.600001 0.571267 0.5
266 1 0.625003 0.618843 0.5
267 1 0.650003 0.571268 0.5
268 1 0.675004 0.618846 0.5
269 1 0.700004 0.571271 0.5
270 1 0.725005 0.618851 0.5
271 1 0.750005 0.571274 0.5
272 1 0.775004 0.618855 0.5
273 1 0.800004 0.571278 0.5
274 1 0.825002 0.61886 0.5
275 1 0.850003 0.571281 0.5
276 1 0.875001 0.618863 0.5
277 1 0.900002 0.571283 0.5
278 1 0.925 0.618864 0.5
279 1 0.950001 0.571284 0.5
280 1 0.975 0.618865 0.5
411 3 0.500106 0.952155 0.5
302 1 0.524996 0.713992 0.5
303 1 0.549998 0.666417 0.5
304 1 0.575 0.71399 0.5
305 1 0.600002 0.666417 0.5
306 1 0.625004 0.713992 0.5
307 1 0.650004 0.66642 0.5
308 1 0.675005 0.713999 0.5
309 1 0.700005 0.666426 0.5
310 1 0.725004 0.714008 0.5
311 1 0.750004 0.666432 0.5
312 1 0.775 0.714016 0.5
313 1 0.800002 0.666438 0.5
314 1 0.824998 0.714021 0.5
315 1 0.85 0.666442 0.5
316 1 0.874997 0.714024 0.5
317 1 0.899999 0.666444 0.5
318 1 0.924997 0.714025 0.5
319 1 0.949999 0.666445 0.5
320 1 0.974997 0.714025 0.5
417 1 0.79997 0.95212 0.5
342 1 0.524995 0.809135 0.5
343 1 0.549997 0.761562 0.5
344 1 0.575 0.809127 0.5
345 1 0.600003 0.761562 0.5
346 1 0.625005 0.809135 0.5
347 1 0.650005 0.761569 0.5
348 1 0.675004 0.809152 0.5
349 1 0.700003 0.761581 0.5
350 1 0.724993 0.809174 0.5
351 1 0.749997 0.761595 0.5
352 1 0.774989 0.80918 0.5
353 1 0.799994 0.761601 0.5
354 1 0.824988 0.809182 0.5
355 1 0.849993 0.761603 0.5
356 1 0.87499 0.809183 0.5
357 1 0.899994 0.761604 0.5
358 1 0.924992 0.809182 0.5
359 1 0.949995 0.761604 0.5
360 1 0.974995 0.809182 0.5
381 3 0.499995 0.856714 0.5
382 3 0.524991 0.904258 0.5
383 3 0.549998 0.856693 0.5
384 3 0.575 0.904251 0.5
385 3 0.600002 0.856693 0.5
386 3 0.625009 0.904258 0.5
387 3 0.650005 0.856714 0.5
388 3 0.674962 0.904347 0.5
389 3 0.699983 0.856755 0.5
390 3 0.724964 0.904345 0.5
391 3 0.74998 0.856761 0.5
392 3 0.774971 0.904343 0.5
393 1 0.799981 0.856762 0.5
394 1 0.824978 0.904341 0.5
395 1 0.849984 0.856761 0.5
396 1 0.874983 0.90434 0.5
397 1 0.899988 0.85676 0.5
398 1 0.924988 0.904339 0.5
399 1 0.949992 0.85676 0.5
400 1 0.974992 0.904338 0.5
421 3 0.575 0.999645 0.5
412 3 0.549984 0.951876 0.5
413 3 0.600016 0.951876 0.5
414 3 0.649894 0.952155 0.5
415 3 0.699935 0.952126 0.5
416 3 0.749957 0.952122 0.5
201 1 1 0.476123 0.5
1 2 0.999998 0.000104069 0.5
341 1 0.499995 0.761569 0.5
41 2 0.999996 0.0954751 0.5
181 1 0.499999 0.380957 0.5
141 1 0.499999 0.285798 0.5
81 1 0.999999 0.190636 0.5
121 1 1 0.285798 0.5
161 1 1 0.380961 0.5
241 1 1 0.571285 0.5
ITEM: TIMESTEP
107
ITEM: NUMBER OF ATOMS
421
ITEM: BOX BOUNDS pp ss pp
0.0000000000000000e+00 2.2653923264628304e+01
2.1879574711865565e-01 2.0356909484259781e+01
-2.8317404080785380e-01 2.8317404080785380e-01
ITEM: ATOMS id type xs ys zs
221 1 0.499998 0.476223 0.5
2 2 0.0249978 0.0478993 0.5
3 2 0.0499993 0.000102314 0.5
4 2 0.075 0.0478986 0.5
5 2 0.100001 0.000102314 0.5
6 2 0.125002 0.0478993 0.5
7 2 0.150002 0.000104096 0.5
8 2 0.175004 0.0479011 0.5
9 2 0.200003 0.0001073 0.5
10 2 0.225005 0.0479035 0.5
11 2 0.250004 0.00011133 0.5
12 2 0.275005 0.047906 0.5
13 2 0.300004 0.000115547 0.5
14 2 0.325005 0.0479082 0.5
15 2 0.350004 0.000119418 0.5
16 2 0.375004 0.0479099 0.5
17 2 0.400004 0.000122604 0.5
18 2 0.425003 0.0479113 0.5
19 2 0.450003 0.000124957 0.5
20 2 0.475002 0.0479123 0.5
406 1 0.250016 0.952342 0.5
42 1 0.0249984 0.14309 0.5
43 2 0.0499985 0.0954993 0.5
44 1 0.075 0.14309 0.5
45 2 0.100002 0.0954993 0.5
46 1 0.125002 0.14309 0.5
47 2 0.150004 0.0954993 0.5
48 1 0.175003 0.14309 0.5
49 2 0.200006 0.0954994 0.5
50 1 0.225004 0.143091 0.5
51 2 0.250007 0.0954997 0.5
52 1 0.275004 0.143091 0.5
53 2 0.300006 0.0955003 0.5
54 1 0.325003 0.143092 0.5
55 2 0.350005 0.0955009 0.5
56 1 0.375003 0.143093 0.5
57 2 0.400004 0.0955014 0.5
58 1 0.425002 0.143093 0.5
59 2 0.450003 0.0955018 0.5
60 1 0.475001 0.143093 0.5
405 1 0.200011 0.952342 0.5
82 1 0.0249999 0.238273 0.5
83 1 0.0499996 0.190681 0.5
84 1 0.075 0.238273 0.5
85 1 0.1 0.190681 0.5
86 1 0.125 0.238273 0.5
87 1 0.150001 0.190682 0.5
88 1 0.175 0.238273 0.5
89 1 0.200001 0.190682 0.5
90 1 0.225 0.238274 0.5
91 1 0.250002 0.190682 0.5
92 1 0.275 0.238274 0.5
93 1 0.300001 0.190683 0.5
94 1 0.325 0.238274 0.5
95 1 0.350001 0.190683 0.5
96 1 0.375 0.238274 0.5
97 1 0.400001 0.190684 0.5
98 1 0.425 0.238275 0.5
99 1 0.450001 0.190684 0.5
100 1 0.475 0.238275 0.5
404 1 0.150006 0.952342 0.5
122 1 0.0250007 0.333457 0.5
123 1 0.0500002 0.285865 0.5
124 1 0.075 0.333457 0.5
125 1 0.0999998 0.285865 0.5
126 1 0.124999 0.333457 0.5
127 1 0.149999 0.285865 0.5
128 1 0.174999 0.333457 0.5
129 1 0.199999 0.285865 0.5
130 1 0.224998 0.333457 0.5
131 1 0.249999 0.285865 0.5
132 1 0.274998 0.333457 0.5
133 1 0.299999 0.285865 0.5
134 1 0.324998 0.333456 0.5
135 1 0.349999 0.285865 0.5
136 1 0.374998 0.333456 0.5
137 1 0.399999 0.285865 0.5
138 1 0.424998 0.333455 0.5
139 1 0.449999 0.285865 0.5
140 1 0.474999 0.333455 0.5
403 1 0.100002 0.952342 0.5
162 1 0.0250009 0.428641 0.5
163 1 0.0500004 0.381049 0.5
164 1 0.075 0.428642 0.5
165 1 0.0999996 0.381049 0.5
166 1 0.124999 0.428641 0.5
167 1 0.149999 0.381049 0.5
168 1 0.174998 0.428641 0.5
169 1 0.199998 0.381049 0.5
170 1 0.224997 0.42864 0.5
171 1 0.249997 0.381048 0.5
172 1 0.274997 0.428639 0.5
173 1 0.299997 0.381048 0.5
174 1 0.324996 0.428638 0.5
175 1 0.349997 0.381047 0.5
176 1 0.374996 0.428637 0.5
177 1 0.399997 0.381046 0.5
178 1 0.424997 0.428635 0.5
179 1 0.449998 0.381045 0.5
180 1 0.474997 0.428634 0.5
410 3 0.450065 0.952349 0.5
202 1 0.0250007 0.523826 0.5
203 1 0.0500004 0.476234 0.5
204 1 0.075 0.523826 0.5
205 1 0.0999996 0.476234 0.5
206 1 0.124999 0.523826 0.5
207 1 0.149999 0.476233 0.5
208 1 0.174999 0.523825 0.5
209 1 0.199998 0.476233 0.5
210 1 0.224998 0.523824 0.5
211 1 0.249997 0.476231 0.5
212 1 0.274997 0.523822 0.5
213 1 0.299996 0.47623 0.5
214 1 0.324996 0.52382 0.5
215 1 0.349996 0.476228 0.5
216 1 0.374995 0.523817 0.5
217 1 0.399996 0.476226 0.5
218 1 0.424996 0.523814 0.5
219 1 0.449996 0.476224 0.5
220 1 0.474997 0.523812 0.5
402 1 0.049998 0.952342 0.5
242 1 0.0249999 0.619009 0.5
243 1 0.0500002 0.571418 0.5
244 1 0.075 0.61901 0.5
245 1 0.0999998 0.571418 0.5
246 1 0.125 0.619009 0.5
247 1 0.149999 0.571417 0.5
248 1 0.175 0.619009 0.5
249 1 0.199999 0.571417 0.5
250 1 0.225 0.619008 0.5
251 1 0.249998 0.571415 0.5
252 1 0.274999 0.619006 0.5
253 1 0.299997 0.571413 0.5
254 1 0.324997 0.619002 0.5
255 1 0.349996 0.571409 0.5
256 1 0.374996 0.618998 0.5
257 1 0.399995 0.571406 0.5
258 1 0.424995 0.618993 0.5
259 1 0.449996 0.571402 0.5
260 1 0.474996 0.618989 0.5
409 1 0.400044 0.952345 0.5
282 1 0.0249987 0.714191 0.5
283 1 0.0499997 0.666601 0.5
284 1 0.075 0.714191 0.5
285 1 0.1 0.666601 0.5
286 1 0.125001 0.714191 0.5
287 1 0.150001 0.6666 0.5
288 1 0.175002 0.714191 0.5
289 1 0.200001 0.6666 0.5
290 1 0.225003 0.714191 0.5
291 1 0.250001 0.666599 0.5
292 1 0.275003 0.714189 0.5
293 1 0.3 0.666596 0.5
294 1 0.325002 0.714187 0.5
295 1 0.349998 0.666592 0.5
296 1 0.375 0.714182 0.5
297 1 0.399996 0.666586 0.5
298 1 0.424996 0.714173 0.5
299 1 0.449995 0.666579 0.5
300 1 0.474995 0.714164 0.5
301 1 0.499996 0.666574 0.5
322 1 0.0249973 0.809371 0.5
323 1 0.049999 0.761782 0.5
324 1 0.075 0.809371 0.5
325 1 0.100001 0.761782 0.5
326 1 0.125003 0.809371 0.5
327 1 0.150003 0.761782 0.5
328 1 0.175005 0.809371 0.5
329 1 0.200005 0.761781 0.5
330 1 0.225008 0.809371 0.5
331 1 0.250006 0.761781 0.5
332 1 0.27501 0.809371 0.5
333 1 0.300007 0.76178 0.5
334 1 0.325012 0.809371 0.5
335 1 0.350006 0.761777 0.5
336 1 0.375011 0.809369 0.5
337 1 0.400003 0.761771 0.5
338 1 0.425007 0.809362 0.5
339 1 0.449997 0.761758 0.5
340 1 0.474996 0.809339 0.5
408 1 0.350031 0.952344 0.5
362 1 0.0249962 0.904551 0.5
363 1 0.0499983 0.85696 0.5
364 1 0.075 0.90455 0.5
365 1 0.100002 0.85696 0.5
366 1 0.125004 0.904551 0.5
367 1 0.150005 0.85696 0.5
368 1 0.175008 0.904551 0.5
369 1 0.200008 0.85696 0.5
370 1 0.225012 0.904551 0.5
371 1 0.250012 0.856961 0.5
372 1 0.275017 0.904552 0.5
373 1 0.300016 0.856961 0.5
374 1 0.325023 0.904553 0.5
375 1 0.350019 0.856962 0.5
376 1 0.375029 0.904555 0.5
377 1 0.400021 0.856961 0.5
378 1 0.425036 0.904556 0.5
379 3 0.450017 0.856955 0.5
380 3 0.475038 0.904558 0.5
407 1 0.300022 0.952343 0.5
261 1 0.499997 0.5714 0.5
381 3 0.499995 0.856913 0.5
241 1 6.04032e-07 0.571417 0.5
161 1 1.26164e-06 0.381049 0.5
121 1 5.63173e-07 0.285865 0.5
201 1 1.30006e-06 0.476233 0.5
141 1 0.499999 0.285865 0.5
181 1 0.499998 0.381045 0.5
341 1 0.499995 0.761745 0.5
21 2 0.500002 0.000126466 0.5
22 2 0.525001 0.0479129 0.5
23 2 0.550001 0.000127193 0.5
24 2 0.575 0.0479131 0.5
25 2 0.599999 0.000127193 0.5
26 2 0.624999 0.0479129 0.5
27 2 0.649998 0.000126466 0.5
28 2 0.674998 0.0479123 0.5
29 2 0.699997 0.000124957 0.5