LAMMPS (29 Oct 2020)
Processor partition = 5
# 2d NEB surface simulation, hop of adatom on surface

dimension	2
boundary	p s p

atom_style	atomic
neighbor	0.3 bin
neigh_modify	delay 5
atom_modify	map array sort 0 0.0

variable	u uloop 20

# create geometry with adatom

lattice		hex 0.9
Lattice spacing in x,y,z = 1.1326962 1.9618873 1.1326962
region		box block 0 20 0 11 -0.25 0.25
region		box1 block 0 20 0 10 -0.25 0.25

#create_box	3 box
#create_atoms	1 region box1
#create_atoms	1 single 11.5 10.5 0
#mass		* 1.0
#write_data      initial.hop2

read_data        initial.hop2
Reading data file ...
  orthogonal box = (0.0000000 -0.002158076 -0.28317404) to (22.653923 20.601975 0.28317404)
  2 by 1 by 1 MPI processor grid
  reading atoms ...
  421 atoms
  reading velocities ...
  421 velocities
  read_data CPU = 0.019 seconds

# LJ potentials

pair_style	lj/cut 2.5
pair_coeff	* * 1.0 1.0 2.5
pair_modify	shift yes

# initial minimization to relax surface

minimize	1.0e-6 1.0e-4 1000 10000
WARNING: Using 'neigh_modify every 1 delay 0 check yes' setting during minimization (../min.cpp:187)
Neighbor list info ...
  update every 1 steps, delay 0 steps, check yes
  max neighbors/atom: 2000, page size: 100000
  master list distance cutoff = 2.8
  ghost atom cutoff = 2.8
  binsize = 1.4, bins = 17 15 1
  1 neighbor lists, perpetual/occasional/extra = 1 0 0
  (1) pair lj/cut, perpetual
      attributes: half, newton on
      pair build: half/bin/atomonly/newton
      stencil: half/bin/2d/newton
      bin: standard
Per MPI rank memory allocation (min/avg/max) = 4.048 | 4.048 | 4.048 Mbytes
Step Temp E_pair E_mol TotEng Press Volume 
       0            0   -3.0315662            0   -3.0315662   -1.5245919    466.76002 
      25            0   -3.0514921            0   -3.0514921  -0.54678545    455.45034 
Loop time of 0.00249887 on 2 procs for 25 steps with 421 atoms

100.0% CPU use with 2 MPI tasks x no OpenMP threads

Minimization stats:
  Stopping criterion = energy tolerance
  Energy initial, next-to-last, final = 
     -3.03156619455004   -3.0514908046715  -3.05149213959168
  Force two-norm initial, final = 9.5002114 0.25713047
  Force max component initial, final = 1.4687744 0.085293276
  Final line search alpha, max atom move = 0.37472561 0.031961575
  Iterations, force evaluations = 25 50

MPI task timing breakdown:
Section |  min time  |  avg time  |  max time  |%varavg| %total
---------------------------------------------------------------
Pair    | 0.0017183  | 0.0017301  | 0.0017419  |   0.0 | 69.23
Neigh   | 7.9393e-05 | 8.1301e-05 | 8.3208e-05 |   0.0 |  3.25
Comm    | 0.00023961 | 0.00024033 | 0.00024104 |   0.0 |  9.62
Output  | 0          | 0          | 0          |   0.0 |  0.00
Modify  | 0          | 0          | 0          |   0.0 |  0.00
Other   |            | 0.0004472  |            |       | 17.89

Nlocal:        210.500 ave         211 max         210 min
Histogram: 1 0 0 0 0 0 0 0 0 1
Nghost:        95.5000 ave          96 max          95 min
Histogram: 1 0 0 0 0 0 0 0 0 1
Neighs:        1793.50 ave        1797 max        1790 min
Histogram: 1 0 0 0 0 0 0 0 0 1

Total # of neighbors = 3587
Ave neighs/atom = 8.5201900
Neighbor list builds = 2
Dangerous builds = 0
reset_timestep	0

# define groups

region	        1 block INF INF INF 1.25 INF INF
group		lower region 1
60 atoms in group lower
group		mobile subtract all lower
361 atoms in group mobile
set		group lower type 2
Setting atom values ...
  60 settings made for type

timestep	0.05

# group of NEB atoms - either block or single atom ID 421

region		surround block 10 18 17 21 0 0 units box
group		nebatoms region surround
22 atoms in group nebatoms
#group		nebatoms id 421
set		group nebatoms type 3
Setting atom values ...
  22 settings made for type
group		nonneb subtract all nebatoms
399 atoms in group nonneb

fix		1 lower setforce 0.0 0.0 0.0
fix		2 nebatoms neb 1.0
fix		3 all enforce2d

thermo		100

#dump		1 nebatoms atom 10 dump.neb.$u
#dump		2 nonneb atom 10 dump.nonneb.$u
dump		3 all atom 10000 dump.combine.$u
dump		3 all atom 10000 dump.combine.6
# run NEB for 2000 steps or to force tolerance

min_style	fire

neb		0.0 0.05 1000 1000 100 final final.hop2
WARNING: Using 'neigh_modify every 1 delay 0 check yes' setting during minimization (../min.cpp:187)
  Parameters for fire: 
    dmax delaystep dtgrow dtshrink alpha0 alphashrink tmax tmin    integrator halfstepback 
     0.1        20    1.1      0.5   0.25        0.99   10 0.02 eulerimplicit          yes 
Per MPI rank memory allocation (min/avg/max) = 3.931 | 3.931 | 3.931 Mbytes
Step Temp E_pair E_mol TotEng Press Volume 
       0            0   -3.0492684            0   -3.0492684  -0.53372599    457.76493 
      78 6.8891403e-10   -3.0500149            0   -3.0500149  -0.54102904    457.76493 
Loop time of 0.0150275 on 2 procs for 78 steps with 421 atoms

93.5% CPU use with 2 MPI tasks x no OpenMP threads

Minimization stats:
  Stopping criterion = force tolerance
  Energy initial, next-to-last, final = 
     -3.04926835972538  -3.05001492779039  -3.05001492788596
  Force two-norm initial, final = 15.726411 0.012434112
  Force max component initial, final = 11.681720 0.0009487335
  Final line search alpha, max atom move = 0.0000000 0.0000000
  Iterations, force evaluations = 78 85

MPI task timing breakdown:
Section |  min time  |  avg time  |  max time  |%varavg| %total
---------------------------------------------------------------
Pair    | 0.0028419  | 0.0029138  | 0.0029857  |   0.1 | 19.39
Neigh   | 0          | 0          | 0          |   0.0 |  0.00
Comm    | 0.00035214 | 0.00043535 | 0.00051856 |   0.0 |  2.90
Output  | 0          | 0          | 0          |   0.0 |  0.00
Modify  | 0.0050707  | 0.0050764  | 0.0050821  |   0.0 | 33.78
Other   |            | 0.006602   |            |       | 43.93

Nlocal:        210.500 ave         216 max         205 min
Histogram: 1 0 0 0 0 0 0 0 0 1
Nghost:        95.5000 ave         101 max          90 min
Histogram: 1 0 0 0 0 0 0 0 0 1
Neighs:        1794.50 ave        1840 max        1749 min
Histogram: 1 0 0 0 0 0 0 0 0 1

Total # of neighbors = 3589
Ave neighs/atom = 8.5249406
Neighbor list builds = 0
Dangerous builds = 0
WARNING: Using 'neigh_modify every 1 delay 0 check yes' setting during minimization (../min.cpp:187)
  Parameters for fire: 
    dmax delaystep dtgrow dtshrink alpha0 alphashrink tmax tmin    integrator halfstepback 
     0.1        20    1.1      0.5   0.25        0.99   10 0.02 eulerimplicit          yes 
Per MPI rank memory allocation (min/avg/max) = 3.931 | 3.931 | 3.931 Mbytes
Step Temp E_pair E_mol TotEng Press Volume 
      78            0   -3.0500149            0   -3.0500149  -0.54002931    458.61237 
     100 4.5689621e-07   -3.0499944            0   -3.0499939  -0.53929535    458.61237 
     107 3.678145e-09   -3.0499898            0   -3.0499898  -0.53916345    458.61237 
Loop time of 0.00534153 on 2 procs for 29 steps with 421 atoms

100.0% CPU use with 2 MPI tasks x no OpenMP threads

Minimization stats:
  Stopping criterion = force tolerance
  Energy initial, next-to-last, final = 
     -3.05001492788596  -3.04998985081472   -3.0499897743565
  Force two-norm initial, final = 0.012434112 0.014293116
  Force max component initial, final = 0.0009487335 0.0100239
  Final line search alpha, max atom move = 0.0000000 0.0000000
  Iterations, force evaluations = 29 31

MPI task timing breakdown:
Section |  min time  |  avg time  |  max time  |%varavg| %total
---------------------------------------------------------------
Pair    | 0.0010798  | 0.0010834  | 0.001087   |   0.0 | 20.28
Neigh   | 0          | 0          | 0          |   0.0 |  0.00
Comm    | 0.00011396 | 0.00012684 | 0.00013971 |   0.0 |  2.37
Output  | 1.0967e-05 | 1.1444e-05 | 1.1921e-05 |   0.0 |  0.21
Modify  | 0.0012929  | 0.0012994  | 0.0013058  |   0.0 | 24.33
Other   |            | 0.00282    |            |       | 52.80

Nlocal:        210.500 ave         211 max         210 min
Histogram: 1 0 0 0 0 0 0 0 0 1
Nghost:        95.5000 ave          96 max          95 min
Histogram: 1 0 0 0 0 0 0 0 0 1
Neighs:        1794.50 ave        1796 max        1793 min
Histogram: 1 0 0 0 0 0 0 0 0 1

Total # of neighbors = 3589
Ave neighs/atom = 8.5249406
Neighbor list builds = 0
Dangerous builds = 0
Total wall time: 0:00:00
