LAMMPS (29 Oct 2020)
Processor partition = 4
Lattice spacing in x,y,z = 1.1326962 1.9618873 1.1326962
Reading data file ...
  orthogonal box = (0.0000000 -0.002158076 -0.28317404) to (22.653923 20.601975 0.28317404)
  2 by 1 by 1 MPI processor grid
  reading atoms ...
  421 atoms
  reading velocities ...
  421 velocities
  read_data CPU = 0.020 seconds
WARNING: Using 'neigh_modify every 1 delay 0 check yes' setting during minimization (../min.cpp:187)
Neighbor list info ...
  update every 1 steps, delay 0 steps, check yes
  max neighbors/atom: 2000, page size: 100000
  master list distance cutoff = 2.8
  ghost atom cutoff = 2.8
  binsize = 1.4, bins = 17 15 1
  1 neighbor lists, perpetual/occasional/extra = 1 0 0
  (1) pair lj/cut, perpetual
      attributes: half, newton on
      pair build: half/bin/atomonly/newton
      stencil: half/bin/2d/newton
      bin: standard
Setting up cg style minimization ...
  Unit style    : lj
  Current step  : 0
Per MPI rank memory allocation (min/avg/max) = 4.048 | 4.048 | 4.048 Mbytes
Step Temp E_pair E_mol TotEng Press Volume 
       0            0   -3.0315662            0   -3.0315662   -1.5245919    466.76002 
      25            0   -3.0514921            0   -3.0514921  -0.54678545    455.45034 
Loop time of 0.00433397 on 2 procs for 25 steps with 421 atoms

81.4% CPU use with 2 MPI tasks x no OpenMP threads

Minimization stats:
  Stopping criterion = energy tolerance
  Energy initial, next-to-last, final = 
     -3.03156619455004   -3.0514908046715  -3.05149213959168
  Force two-norm initial, final = 9.5002114 0.25713047
  Force max component initial, final = 1.4687744 0.085293276
  Final line search alpha, max atom move = 0.37472561 0.031961575
  Iterations, force evaluations = 25 50

MPI task timing breakdown:
Section |  min time  |  avg time  |  max time  |%varavg| %total
---------------------------------------------------------------
Pair    | 0.0016935  | 0.0024983  | 0.0033031  |   1.6 | 57.64
Neigh   | 8.2016e-05 | 0.00011349 | 0.00014496 |   0.0 |  2.62
Comm    | 0.00030112 | 0.001133   | 0.0019648  |   2.5 | 26.14
Output  | 0          | 0          | 0          |   0.0 |  0.00
Modify  | 0          | 0          | 0          |   0.0 |  0.00
Other   |            | 0.0005893  |            |       | 13.60

Nlocal:        210.500 ave         211 max         210 min
Histogram: 1 0 0 0 0 0 0 0 0 1
Nghost:        95.5000 ave          96 max          95 min
Histogram: 1 0 0 0 0 0 0 0 0 1
Neighs:        1793.50 ave        1797 max        1790 min
Histogram: 1 0 0 0 0 0 0 0 0 1

Total # of neighbors = 3587
Ave neighs/atom = 8.5201900
Neighbor list builds = 2
Dangerous builds = 0
60 atoms in group lower
361 atoms in group mobile
Setting atom values ...
  60 settings made for type
22 atoms in group nebatoms
Setting atom values ...
  22 settings made for type
399 atoms in group nonneb
WARNING: Using 'neigh_modify every 1 delay 0 check yes' setting during minimization (../min.cpp:187)
Setting up fire style minimization ...
  Unit style    : lj
  Current step  : 0
Per MPI rank memory allocation (min/avg/max) = 3.931 | 3.931 | 3.931 Mbytes
Step Temp E_pair E_mol TotEng Press Volume 
       0            0   -3.0495199            0   -3.0495199  -0.53498807     457.4765 
      78 1.3576738e-09    -3.050243            0    -3.050243  -0.54268325     457.4765 
Loop time of 0.015028 on 2 procs for 78 steps with 421 atoms

90.1% CPU use with 2 MPI tasks x no OpenMP threads

Minimization stats:
  Stopping criterion = force tolerance
  Energy initial, next-to-last, final = 
     -3.04951988108627  -3.05024303130354  -3.05024303889158
  Force two-norm initial, final = 14.955366 0.018057758
  Force max component initial, final = 11.053023 0.0012290419
  Final line search alpha, max atom move = 0.0000000 0.0000000
  Iterations, force evaluations = 78 85

MPI task timing breakdown:
Section |  min time  |  avg time  |  max time  |%varavg| %total
---------------------------------------------------------------
Pair    | 0.0029798  | 0.0038435  | 0.0047073  |   1.4 | 25.58
Neigh   | 0          | 0          | 0          |   0.0 |  0.00
Comm    | 0.00040174 | 0.0012724  | 0.0021431  |   2.4 |  8.47
Output  | 0          | 0          | 0          |   0.0 |  0.00
Modify  | 0.003737   | 0.0037451  | 0.0037532  |   0.0 | 24.92
Other   |            | 0.006167   |            |       | 41.04

Nlocal:        210.500 ave         216 max         205 min
Histogram: 1 0 0 0 0 0 0 0 0 1
Nghost:        95.5000 ave         101 max          90 min
Histogram: 1 0 0 0 0 0 0 0 0 1
Neighs:        1794.50 ave        1840 max        1749 min
Histogram: 1 0 0 0 0 0 0 0 0 1

Total # of neighbors = 3589
Ave neighs/atom = 8.5249406
Neighbor list builds = 0
Dangerous builds = 0
WARNING: Using 'neigh_modify every 1 delay 0 check yes' setting during minimization (../min.cpp:187)
Setting up fire style minimization ...
  Unit style    : lj
  Current step  : 78
Per MPI rank memory allocation (min/avg/max) = 3.931 | 3.931 | 3.931 Mbytes
Step Temp E_pair E_mol TotEng Press Volume 
      78            0    -3.050243            0    -3.050243  -0.54183896    458.18934 
     100 1.5885953e-07   -3.0502421            0   -3.0502419  -0.54124009    458.18934 
     107 4.7902223e-09   -3.0502395            0   -3.0502395  -0.54113274    458.18934 
Loop time of 0.00534201 on 2 procs for 29 steps with 421 atoms

100.0% CPU use with 2 MPI tasks x no OpenMP threads

Minimization stats:
  Stopping criterion = force tolerance
  Energy initial, next-to-last, final = 
     -3.05024303889158  -3.05023966773909  -3.05023954584727
  Force two-norm initial, final = 0.018057758 0.016344375
  Force max component initial, final = 0.0012290419 0.0078303431
  Final line search alpha, max atom move = 0.0000000 0.0000000
  Iterations, force evaluations = 29 31

MPI task timing breakdown:
Section |  min time  |  avg time  |  max time  |%varavg| %total
---------------------------------------------------------------
Pair    | 0.00109    | 0.001363   | 0.001636   |   0.7 | 25.52
Neigh   | 0          | 0          | 0          |   0.0 |  0.00
Comm    | 0.00013876 | 0.00041044 | 0.00068212 |   0.0 |  7.68
Output  | 1.3828e-05 | 1.5497e-05 | 1.7166e-05 |   0.0 |  0.29
Modify  | 0.00078321 | 0.00078511 | 0.00078702 |   0.0 | 14.70
Other   |            | 0.002768   |            |       | 51.81

Nlocal:        210.500 ave         213 max         208 min
Histogram: 1 0 0 0 0 0 0 0 0 1
Nghost:        95.5000 ave          98 max          93 min
Histogram: 1 0 0 0 0 0 0 0 0 1
Neighs:        1794.50 ave        1813 max        1776 min
Histogram: 1 0 0 0 0 0 0 0 0 1

Total # of neighbors = 3589
Ave neighs/atom = 8.5249406
Neighbor list builds = 0
Dangerous builds = 0
Total wall time: 0:00:00
