LAMMPS (29 Oct 2020)
Processor partition = 6
Lattice spacing in x,y,z = 1.1326962 1.9618873 1.1326962
Reading data file ...
  orthogonal box = (0.0000000 -0.002158076 -0.28317404) to (22.653923 20.601975 0.28317404)
  2 by 1 by 1 MPI processor grid
  reading atoms ...
  421 atoms
  reading velocities ...
  421 velocities
  read_data CPU = 0.019 seconds
WARNING: Using 'neigh_modify every 1 delay 0 check yes' setting during minimization (../min.cpp:187)
Neighbor list info ...
  update every 1 steps, delay 0 steps, check yes
  max neighbors/atom: 2000, page size: 100000
  master list distance cutoff = 2.8
  ghost atom cutoff = 2.8
  binsize = 1.4, bins = 17 15 1
  1 neighbor lists, perpetual/occasional/extra = 1 0 0
  (1) pair lj/cut, perpetual
      attributes: half, newton on
      pair build: half/bin/atomonly/newton
      stencil: half/bin/2d/newton
      bin: standard
Setting up cg style minimization ...
  Unit style    : lj
  Current step  : 0
Per MPI rank memory allocation (min/avg/max) = 4.048 | 4.048 | 4.048 Mbytes
Step Temp E_pair E_mol TotEng Press Volume 
       0            0   -3.0315662            0   -3.0315662   -1.5245919    466.76002 
      25            0   -3.0514921            0   -3.0514921  -0.54678545    455.45034 
Loop time of 0.00251794 on 2 procs for 25 steps with 421 atoms

100.0% CPU use with 2 MPI tasks x no OpenMP threads

Minimization stats:
  Stopping criterion = energy tolerance
  Energy initial, next-to-last, final = 
     -3.03156619455004   -3.0514908046715  -3.05149213959168
  Force two-norm initial, final = 9.5002114 0.25713047
  Force max component initial, final = 1.4687744 0.085293276
  Final line search alpha, max atom move = 0.37472561 0.031961575
  Iterations, force evaluations = 25 50

MPI task timing breakdown:
Section |  min time  |  avg time  |  max time  |%varavg| %total
---------------------------------------------------------------
Pair    | 0.0017056  | 0.0017084  | 0.0017111  |   0.0 | 67.85
Neigh   | 9.0122e-05 | 9.1672e-05 | 9.3222e-05 |   0.0 |  3.64
Comm    | 0.00024796 | 0.00026178 | 0.00027561 |   0.0 | 10.40
Output  | 0          | 0          | 0          |   0.0 |  0.00
Modify  | 0          | 0          | 0          |   0.0 |  0.00
Other   |            | 0.0004561  |            |       | 18.11

Nlocal:        210.500 ave         211 max         210 min
Histogram: 1 0 0 0 0 0 0 0 0 1
Nghost:        95.5000 ave          96 max          95 min
Histogram: 1 0 0 0 0 0 0 0 0 1
Neighs:        1793.50 ave        1797 max        1790 min
Histogram: 1 0 0 0 0 0 0 0 0 1

Total # of neighbors = 3587
Ave neighs/atom = 8.5201900
Neighbor list builds = 2
Dangerous builds = 0
60 atoms in group lower
361 atoms in group mobile
Setting atom values ...
  60 settings made for type
22 atoms in group nebatoms
Setting atom values ...
  22 settings made for type
399 atoms in group nonneb
WARNING: Using 'neigh_modify every 1 delay 0 check yes' setting during minimization (../min.cpp:187)
Setting up fire style minimization ...
  Unit style    : lj
  Current step  : 0
Per MPI rank memory allocation (min/avg/max) = 3.931 | 3.931 | 3.931 Mbytes
Step Temp E_pair E_mol TotEng Press Volume 
       0            0   -3.0493062            0   -3.0493062  -0.53474671    458.05336 
      78 3.3247395e-10   -3.0499063            0   -3.0499063  -0.54003749    458.05336 
Loop time of 0.0150251 on 2 procs for 78 steps with 421 atoms

94.3% CPU use with 2 MPI tasks x no OpenMP threads

Minimization stats:
  Stopping criterion = force tolerance
  Energy initial, next-to-last, final = 
     -3.04930621906005  -3.04990633125568  -3.04990632987285
  Force two-norm initial, final = 13.675969 0.0086582246
  Force max component initial, final = 10.298158 0.0023359882
  Final line search alpha, max atom move = 0.0000000 0.0000000
  Iterations, force evaluations = 78 85

MPI task timing breakdown:
Section |  min time  |  avg time  |  max time  |%varavg| %total
---------------------------------------------------------------
Pair    | 0.0028298  | 0.0029066  | 0.0029833  |   0.1 | 19.34
Neigh   | 0          | 0          | 0          |   0.0 |  0.00
Comm    | 0.00038433 | 0.00047493 | 0.00056553 |   0.0 |  3.16
Output  | 0          | 0          | 0          |   0.0 |  0.00
Modify  | 0.0042622  | 0.0042711  | 0.0042801  |   0.0 | 28.43
Other   |            | 0.007372   |            |       | 49.07

Nlocal:        210.500 ave         216 max         205 min
Histogram: 1 0 0 0 0 0 0 0 0 1
Nghost:        95.5000 ave         101 max          90 min
Histogram: 1 0 0 0 0 0 0 0 0 1
Neighs:        1794.50 ave        1840 max        1749 min
Histogram: 1 0 0 0 0 0 0 0 0 1

Total # of neighbors = 3589
Ave neighs/atom = 8.5249406
Neighbor list builds = 0
Dangerous builds = 0
WARNING: Using 'neigh_modify every 1 delay 0 check yes' setting during minimization (../min.cpp:187)
Setting up fire style minimization ...
  Unit style    : lj
  Current step  : 78
Per MPI rank memory allocation (min/avg/max) = 3.931 | 3.931 | 3.931 Mbytes
Step Temp E_pair E_mol TotEng Press Volume 
      78            0   -3.0499063            0   -3.0499063  -0.53912708    458.82687 
     100 8.9004273e-07   -3.0498928            0   -3.0498919  -0.53840855    458.82687 
     107 5.1778918e-08   -3.0498928            0   -3.0498927  -0.53826486    458.82687 
Loop time of 0.00534153 on 2 procs for 29 steps with 421 atoms

100.0% CPU use with 2 MPI tasks x no OpenMP threads

Minimization stats:
  Stopping criterion = force tolerance
  Energy initial, next-to-last, final = 
     -3.04990632987285  -3.04989279060407  -3.04989277061642
  Force two-norm initial, final = 0.25153089 0.047994442
  Force max component initial, final = 0.24635033 0.043842302
  Final line search alpha, max atom move = 0.0000000 0.0000000
  Iterations, force evaluations = 29 31

MPI task timing breakdown:
Section |  min time  |  avg time  |  max time  |%varavg| %total
---------------------------------------------------------------
Pair    | 0.0010555  | 0.0010747  | 0.0010939  |   0.1 | 20.12
Neigh   | 0          | 0          | 0          |   0.0 |  0.00
Comm    | 0.00013614 | 0.00015306 | 0.00016999 |   0.0 |  2.87
Output  | 1.2875e-05 | 1.2875e-05 | 1.2875e-05 |   0.0 |  0.24
Modify  | 0.0011082  | 0.0011088  | 0.0011094  |   0.0 | 20.76
Other   |            | 0.002992   |            |       | 56.02

Nlocal:        210.500 ave         213 max         208 min
Histogram: 1 0 0 0 0 0 0 0 0 1
Nghost:        95.5000 ave          98 max          93 min
Histogram: 1 0 0 0 0 0 0 0 0 1
Neighs:        1794.50 ave        1826 max        1763 min
Histogram: 1 0 0 0 0 0 0 0 0 1

Total # of neighbors = 3589
Ave neighs/atom = 8.5249406
Neighbor list builds = 0
Dangerous builds = 0
Total wall time: 0:00:00
