LAMMPS (29 Oct 2020)
Processor partition = 1
Lattice spacing in x,y,z = 1.1326962 1.9618873 1.1326962
Reading data file ...
  orthogonal box = (0.0000000 -0.002158076 -0.28317404) to (22.653923 20.601975 0.28317404)
  2 by 1 by 1 MPI processor grid
  reading atoms ...
  421 atoms
  reading velocities ...
  421 velocities
  read_data CPU = 0.019 seconds
WARNING: Using 'neigh_modify every 1 delay 0 check yes' setting during minimization (../min.cpp:187)
Neighbor list info ...
  update every 1 steps, delay 0 steps, check yes
  max neighbors/atom: 2000, page size: 100000
  master list distance cutoff = 2.8
  ghost atom cutoff = 2.8
  binsize = 1.4, bins = 17 15 1
  1 neighbor lists, perpetual/occasional/extra = 1 0 0
  (1) pair lj/cut, perpetual
      attributes: half, newton on
      pair build: half/bin/atomonly/newton
      stencil: half/bin/2d/newton
      bin: standard
Setting up cg style minimization ...
  Unit style    : lj
  Current step  : 0
Per MPI rank memory allocation (min/avg/max) = 4.048 | 4.048 | 4.048 Mbytes
Step Temp E_pair E_mol TotEng Press Volume 
       0            0   -3.0315662            0   -3.0315662   -1.5245919    466.76002 
      25            0   -3.0514921            0   -3.0514921  -0.54678545    455.45034 
Loop time of 0.00477159 on 2 procs for 25 steps with 421 atoms

100.0% CPU use with 2 MPI tasks x no OpenMP threads

Minimization stats:
  Stopping criterion = energy tolerance
  Energy initial, next-to-last, final = 
     -3.03156619455004   -3.0514908046715  -3.05149213959168
  Force two-norm initial, final = 9.5002114 0.25713047
  Force max component initial, final = 1.4687744 0.085293276
  Final line search alpha, max atom move = 0.37472561 0.031961575
  Iterations, force evaluations = 25 50

MPI task timing breakdown:
Section |  min time  |  avg time  |  max time  |%varavg| %total
---------------------------------------------------------------
Pair    | 0.0017295  | 0.0026712  | 0.003613   |   1.8 | 55.98
Neigh   | 8.1778e-05 | 0.00012481 | 0.00016785 |   0.0 |  2.62
Comm    | 0.00031638 | 0.0012987  | 0.002281   |   2.7 | 27.22
Output  | 0          | 0          | 0          |   0.0 |  0.00
Modify  | 0          | 0          | 0          |   0.0 |  0.00
Other   |            | 0.0006769  |            |       | 14.19

Nlocal:        210.500 ave         211 max         210 min
Histogram: 1 0 0 0 0 0 0 0 0 1
Nghost:        95.5000 ave          96 max          95 min
Histogram: 1 0 0 0 0 0 0 0 0 1
Neighs:        1793.50 ave        1797 max        1790 min
Histogram: 1 0 0 0 0 0 0 0 0 1

Total # of neighbors = 3587
Ave neighs/atom = 8.5201900
Neighbor list builds = 2
Dangerous builds = 0
60 atoms in group lower
361 atoms in group mobile
Setting atom values ...
  60 settings made for type
22 atoms in group nebatoms
Setting atom values ...
  22 settings made for type
399 atoms in group nonneb
WARNING: Using 'neigh_modify every 1 delay 0 check yes' setting during minimization (../min.cpp:187)
Setting up fire style minimization ...
  Unit style    : lj
  Current step  : 0
Per MPI rank memory allocation (min/avg/max) = 3.931 | 3.931 | 3.931 Mbytes
Step Temp E_pair E_mol TotEng Press Volume 
       0            0   -3.0512395            0   -3.0512395  -0.54509056    456.61121 
      78 7.6032423e-09   -3.0514126            0   -3.0514126  -0.54490646    456.61121 
Loop time of 0.015028 on 2 procs for 78 steps with 421 atoms

87.8% CPU use with 2 MPI tasks x no OpenMP threads

Minimization stats:
  Stopping criterion = force tolerance
  Energy initial, next-to-last, final = 
     -3.05123946544475  -3.05141260909323  -3.05141262899036
  Force two-norm initial, final = 3.4597728 0.039287911
  Force max component initial, final = 2.3431095 0.005554178
  Final line search alpha, max atom move = 0.0000000 0.0000000
  Iterations, force evaluations = 78 85

MPI task timing breakdown:
Section |  min time  |  avg time  |  max time  |%varavg| %total
---------------------------------------------------------------
Pair    | 0.00298    | 0.0041453  | 0.0053105  |   1.8 | 27.58
Neigh   | 0          | 0          | 0          |   0.0 |  0.00
Comm    | 0.00044537 | 0.0016088  | 0.0027723  |   2.9 | 10.71
Output  | 0          | 0          | 0          |   0.0 |  0.00
Modify  | 0.002851   | 0.0028714  | 0.0028918  |   0.0 | 19.11
Other   |            | 0.006402   |            |       | 42.60

Nlocal:        210.500 ave         216 max         205 min
Histogram: 1 0 0 0 0 0 0 0 0 1
Nghost:        95.5000 ave         101 max          90 min
Histogram: 1 0 0 0 0 0 0 0 0 1
Neighs:        1793.50 ave        1842 max        1745 min
Histogram: 1 0 0 0 0 0 0 0 0 1

Total # of neighbors = 3587
Ave neighs/atom = 8.5201900
Neighbor list builds = 0
Dangerous builds = 0
WARNING: Using 'neigh_modify every 1 delay 0 check yes' setting during minimization (../min.cpp:187)
Setting up fire style minimization ...
  Unit style    : lj
  Current step  : 78
Per MPI rank memory allocation (min/avg/max) = 3.931 | 3.931 | 3.931 Mbytes
Step Temp E_pair E_mol TotEng Press Volume 
      78            0   -3.0514126            0   -3.0514126  -0.54513485    456.41991 
     100 5.6530441e-07   -3.0514203            0   -3.0514197  -0.54463421    456.41991 
     107 1.5220811e-08   -3.0514219            0   -3.0514219  -0.54451946    456.41991 
Loop time of 0.00534141 on 2 procs for 29 steps with 421 atoms

100.0% CPU use with 2 MPI tasks x no OpenMP threads

Minimization stats:
  Stopping criterion = force tolerance
  Energy initial, next-to-last, final = 
     -3.05141262899036  -3.05142184382519  -3.05142189673891
  Force two-norm initial, final = 0.039287911 0.030681921
  Force max component initial, final = 0.005554178 0.0048806394
  Final line search alpha, max atom move = 0.0000000 0.0000000
  Iterations, force evaluations = 29 31

MPI task timing breakdown:
Section |  min time  |  avg time  |  max time  |%varavg| %total
---------------------------------------------------------------
Pair    | 0.0010896  | 0.001454   | 0.0018184  |   1.0 | 27.22
Neigh   | 0          | 0          | 0          |   0.0 |  0.00
Comm    | 0.00018334 | 0.0005424  | 0.00090146 |   0.0 | 10.15
Output  | 1.2875e-05 | 1.502e-05  | 1.7166e-05 |   0.0 |  0.28
Modify  | 0.00065398 | 0.00065529 | 0.0006566  |   0.0 | 12.27
Other   |            | 0.002675   |            |       | 50.07

Nlocal:        210.500 ave         213 max         208 min
Histogram: 1 0 0 0 0 0 0 0 0 1
Nghost:        95.5000 ave          98 max          93 min
Histogram: 1 0 0 0 0 0 0 0 0 1
Neighs:        1793.50 ave        1813 max        1774 min
Histogram: 1 0 0 0 0 0 0 0 0 1

Total # of neighbors = 3587
Ave neighs/atom = 8.5201900
Neighbor list builds = 0
Dangerous builds = 0
Total wall time: 0:00:00
