LAMMPS (29 Oct 2020)
Processor partition = 7
Lattice spacing in x,y,z = 1.1326962 1.9618873 1.1326962
Reading data file ...
  orthogonal box = (0.0000000 -0.002158076 -0.28317404) to (22.653923 20.601975 0.28317404)
  2 by 1 by 1 MPI processor grid
  reading atoms ...
  421 atoms
  reading velocities ...
  421 velocities
  read_data CPU = 0.020 seconds
WARNING: Using 'neigh_modify every 1 delay 0 check yes' setting during minimization (../min.cpp:187)
Neighbor list info ...
  update every 1 steps, delay 0 steps, check yes
  max neighbors/atom: 2000, page size: 100000
  master list distance cutoff = 2.8
  ghost atom cutoff = 2.8
  binsize = 1.4, bins = 17 15 1
  1 neighbor lists, perpetual/occasional/extra = 1 0 0
  (1) pair lj/cut, perpetual
      attributes: half, newton on
      pair build: half/bin/atomonly/newton
      stencil: half/bin/2d/newton
      bin: standard
Setting up cg style minimization ...
  Unit style    : lj
  Current step  : 0
Per MPI rank memory allocation (min/avg/max) = 4.048 | 4.048 | 4.048 Mbytes
Step Temp E_pair E_mol TotEng Press Volume 
       0            0   -3.0315662            0   -3.0315662   -1.5245919    466.76002 
      25            0   -3.0514921            0   -3.0514921  -0.54678545    455.45034 
Loop time of 0.00250816 on 2 procs for 25 steps with 421 atoms

89.7% CPU use with 2 MPI tasks x no OpenMP threads

Minimization stats:
  Stopping criterion = energy tolerance
  Energy initial, next-to-last, final = 
     -3.03156619455004   -3.0514908046715  -3.05149213959168
  Force two-norm initial, final = 9.5002114 0.25713047
  Force max component initial, final = 1.4687744 0.085293276
  Final line search alpha, max atom move = 0.37472561 0.031961575
  Iterations, force evaluations = 25 50

MPI task timing breakdown:
Section |  min time  |  avg time  |  max time  |%varavg| %total
---------------------------------------------------------------
Pair    | 0.0017114  | 0.0017269  | 0.0017424  |   0.0 | 68.85
Neigh   | 8.0109e-05 | 8.1062e-05 | 8.2016e-05 |   0.0 |  3.23
Comm    | 0.00021029 | 0.00023639 | 0.0002625  |   0.0 |  9.42
Output  | 0          | 0          | 0          |   0.0 |  0.00
Modify  | 0          | 0          | 0          |   0.0 |  0.00
Other   |            | 0.0004638  |            |       | 18.49

Nlocal:        210.500 ave         211 max         210 min
Histogram: 1 0 0 0 0 0 0 0 0 1
Nghost:        95.5000 ave          96 max          95 min
Histogram: 1 0 0 0 0 0 0 0 0 1
Neighs:        1793.50 ave        1797 max        1790 min
Histogram: 1 0 0 0 0 0 0 0 0 1

Total # of neighbors = 3587
Ave neighs/atom = 8.5201900
Neighbor list builds = 2
Dangerous builds = 0
60 atoms in group lower
361 atoms in group mobile
Setting atom values ...
  60 settings made for type
22 atoms in group nebatoms
Setting atom values ...
  22 settings made for type
399 atoms in group nonneb
WARNING: Using 'neigh_modify every 1 delay 0 check yes' setting during minimization (../min.cpp:187)
Setting up fire style minimization ...
  Unit style    : lj
  Current step  : 0
Per MPI rank memory allocation (min/avg/max) = 3.931 | 3.931 | 3.931 Mbytes
Step Temp E_pair E_mol TotEng Press Volume 
       0            0   -3.0495574            0   -3.0495574  -0.53744777     458.3418 
      78  5.12679e-10   -3.0499147            0   -3.0499147  -0.53967912     458.3418 
Loop time of 0.015028 on 2 procs for 78 steps with 421 atoms

92.3% CPU use with 2 MPI tasks x no OpenMP threads

Minimization stats:
  Stopping criterion = force tolerance
  Energy initial, next-to-last, final = 
     -3.04955736084239  -3.04991465693603  -3.04991466366536
  Force two-norm initial, final = 9.6154875 0.011497227
  Force max component initial, final = 7.4331809 0.0071168294
  Final line search alpha, max atom move = 0.0000000 0.0000000
  Iterations, force evaluations = 78 85

MPI task timing breakdown:
Section |  min time  |  avg time  |  max time  |%varavg| %total
---------------------------------------------------------------
Pair    | 0.0028133  | 0.0029005  | 0.0029876  |   0.2 | 19.30
Neigh   | 0          | 0          | 0          |   0.0 |  0.00
Comm    | 0.00034404 | 0.00043499 | 0.00052595 |   0.0 |  2.89
Output  | 0          | 0          | 0          |   0.0 |  0.00
Modify  | 0.0029206  | 0.0029268  | 0.002933   |   0.0 | 19.48
Other   |            | 0.008766   |            |       | 58.33

Nlocal:        210.500 ave         216 max         205 min
Histogram: 1 0 0 0 0 0 0 0 0 1
Nghost:        95.5000 ave         101 max          90 min
Histogram: 1 0 0 0 0 0 0 0 0 1
Neighs:        1794.50 ave        1840 max        1749 min
Histogram: 1 0 0 0 0 0 0 0 0 1

Total # of neighbors = 3589
Ave neighs/atom = 8.5249406
Neighbor list builds = 0
Dangerous builds = 0
WARNING: Using 'neigh_modify every 1 delay 0 check yes' setting during minimization (../min.cpp:187)
Setting up fire style minimization ...
  Unit style    : lj
  Current step  : 78
Per MPI rank memory allocation (min/avg/max) = 3.931 | 3.931 | 3.931 Mbytes
Step Temp E_pair E_mol TotEng Press Volume 
      78            0   -3.0499147            0   -3.0499147  -0.53912961    458.80896 
     100 7.3936068e-07   -3.0499287            0    -3.049928  -0.53852434    458.80896 
     107 8.8667974e-09   -3.0499328            0   -3.0499328  -0.53840265    458.80896 
Loop time of 0.00534201 on 2 procs for 29 steps with 421 atoms

97.5% CPU use with 2 MPI tasks x no OpenMP threads

Minimization stats:
  Stopping criterion = force tolerance
  Energy initial, next-to-last, final = 
     -3.04991466366536  -3.04993268162765  -3.04993277699632
  Force two-norm initial, final = 0.011497227 0.022084986
  Force max component initial, final = 0.0071168294 0.019587493
  Final line search alpha, max atom move = 0.0000000 0.0000000
  Iterations, force evaluations = 29 31

MPI task timing breakdown:
Section |  min time  |  avg time  |  max time  |%varavg| %total
---------------------------------------------------------------
Pair    | 0.0010562  | 0.0010738  | 0.0010915  |   0.1 | 20.10
Neigh   | 0          | 0          | 0          |   0.0 |  0.00
Comm    | 0.00011778 | 0.00013924 | 0.00016069 |   0.0 |  2.61
Output  | 1.1921e-05 | 1.2398e-05 | 1.2875e-05 |   0.0 |  0.23
Modify  | 0.00063753 | 0.00063848 | 0.00063944 |   0.0 | 11.95
Other   |            | 0.003478   |            |       | 65.11

Nlocal:        210.500 ave         214 max         207 min
Histogram: 1 0 0 0 0 0 0 0 0 1
Nghost:        95.5000 ave          99 max          92 min
Histogram: 1 0 0 0 0 0 0 0 0 1
Neighs:        1794.50 ave        1815 max        1774 min
Histogram: 1 0 0 0 0 0 0 0 0 1

Total # of neighbors = 3589
Ave neighs/atom = 8.5249406
Neighbor list builds = 0
Dangerous builds = 0
Total wall time: 0:00:00
