 Lammps data file for nanotube
 
        9216 atoms
           1 atom types
 
  -33.66221       67.32442     xlo xhi
  -26.75140       60.75663     ylo yhi
  -80.00000       80.00000     zlo zhi
 
  Atoms
 
    1    1 -33.738 -26.816   0.000
    2    1 -32.336 -26.816   0.000
    3    1 -31.635 -25.602   0.000
    4    1 -30.232 -25.602   0.000
    5    1 -33.738 -24.388   0.000
    6    1 -32.336 -24.388   0.000
    7    1 -31.635 -23.172   0.000
    8    1 -30.232 -23.172   0.000
    9    1 -33.738 -21.958   0.000
   10    1 -32.336 -21.958   0.000
   11    1 -31.635 -20.744   0.000
   12    1 -30.232 -20.744   0.000
   13    1 -33.738 -19.529   0.000
   14    1 -32.336 -19.529   0.000
   15    1 -31.635 -18.315   0.000
   16    1 -30.232 -18.315   0.000
   17    1 -33.738 -17.101   0.000
   18    1 -32.336 -17.101   0.000
   19    1 -31.635 -15.886   0.000
   20    1 -30.232 -15.886   0.000
   21    1 -33.738 -14.671   0.000
   22    1 -32.336 -14.671   0.000
   23    1 -31.635 -13.457   0.000
   24    1 -30.232 -13.457   0.000
   25    1 -33.738 -12.243   0.000
   26    1 -32.336 -12.243   0.000
   27    1 -31.635 -11.028   0.000
   28    1 -30.232 -11.028   0.000
   29    1 -33.738  -9.813   0.000
   30    1 -32.336  -9.813   0.000
   31    1 -31.635  -8.599   0.000
   32    1 -30.232  -8.599   0.000
   33    1 -33.738  -7.385   0.000
   34    1 -32.336  -7.385   0.000
   35    1 -31.635  -6.170   0.000
   36    1 -30.232  -6.170   0.000
   37    1 -33.738  -4.956   0.000
   38    1 -32.336  -4.956   0.000
   39    1 -31.635  -3.742   0.000
   40    1 -30.232  -3.742   0.000
   41    1 -33.738  -2.526   0.000
   42    1 -32.336  -2.526   0.000
   43    1 -31.635  -1.312   0.000
   44    1 -30.232  -1.312   0.000
   45    1 -33.738  -0.098   0.000
   46    1 -32.336  -0.098   0.000
   47    1 -31.635   1.117   0.000
   48    1 -30.232   1.117   0.000
   49    1 -29.531 -26.816   0.000
   50    1 -28.129 -26.816   0.000
   51    1 -27.427 -25.602   0.000
   52    1 -26.024 -25.602   0.000
   53    1 -29.531 -24.388   0.000
   54    1 -28.129 -24.388   0.000
   55    1 -27.427 -23.172   0.000
   56    1 -26.024 -23.172   0.000
   57    1 -29.531 -21.958   0.000
   58    1 -28.129 -21.958   0.000
   59    1 -27.427 -20.744   0.000
   60    1 -26.024 -20.744   0.000
   61    1 -29.531 -19.529   0.000
   62    1 -28.129 -19.529   0.000
   63    1 -27.427 -18.315   0.000
   64    1 -26.052 -18.358  -0.086
   65    1 -29.531 -17.101   0.000
   66    1 -28.129 -17.101   0.000
   67    1 -27.427 -15.886   0.000
   68    1 -26.052 -15.989  -0.221
   69    1 -29.531 -14.671   0.000
   70    1 -28.129 -14.671   0.000
   71    1 -27.392 -13.489   0.039
   72    1 -26.021 -13.705   0.339
   73    1 -29.531 -12.243   0.000
   74    1 -28.129 -12.243   0.000
   75    1 -27.379 -10.998  -0.007
   76    1 -25.995 -10.785   0.317
   77    1 -29.531  -9.813   0.000
   78    1 -28.129  -9.813   0.000
   79    1 -27.427  -8.599   0.000
   80    1 -26.047  -8.498  -0.249
   81    1 -29.531  -7.385   0.000
   82    1 -28.129  -7.385   0.000
   83    1 -27.427  -6.170   0.000
   84    1 -26.056  -6.121  -0.161
   85    1 -29.531  -4.956   0.000
   86    1 -28.129  -4.956   0.000
   87    1 -27.427  -3.742   0.000
   88    1 -26.024  -3.742   0.000
   89    1 -29.531  -2.526   0.000
   90    1 -28.129  -2.526   0.000
   91    1 -27.427  -1.312   0.000
   92    1 -26.024  -1.312   0.000
   93    1 -29.531  -0.098   0.000
   94    1 -28.129  -0.098   0.000
   95    1 -27.427   1.117   0.000
   96    1 -26.024   1.117   0.000
   97    1 -25.323 -26.816   0.000
   98    1 -23.921 -26.816   0.000
   99    1 -23.220 -25.602   0.000
  100    1 -21.816 -25.602   0.000
  101    1 -25.323 -24.388   0.000
  102    1 -23.921 -24.388   0.000
  103    1 -23.220 -23.172   0.000
  104    1 -21.816 -23.172   0.000
  105    1 -25.323 -21.958   0.000
  106    1 -23.921 -21.958   0.000
  107    1 -23.263 -20.786  -0.361
  108    1 -21.902 -20.856  -0.631
  109    1 -25.323 -19.529   0.000
  110    1 -23.964 -19.586  -0.271
  111    1 -23.248 -18.397  -0.298
  112    1 -21.872 -18.516  -0.122
  113    1 -25.355 -17.196  -0.303
  114    1 -23.980 -17.260  -0.015
  115    1 -25.311 -14.918   0.199
  116    1 -25.277  -9.552   0.211
  117    1 -25.345  -7.303  -0.358
  118    1 -23.953  -7.199  -0.043
  119    1 -23.235  -6.054  -0.343
  120    1 -21.871  -5.959  -0.150
  121    1 -25.323  -4.956   0.000
  122    1 -23.950  -4.875  -0.315
  123    1 -23.237  -3.667  -0.368
  124    1 -21.867  -3.616  -0.669
  125    1 -25.323  -2.526   0.000
  126    1 -23.921  -2.526   0.000
  127    1 -23.220  -1.312   0.000
  128    1 -21.816  -1.312   0.000
  129    1 -25.323  -0.098   0.000
  130    1 -23.921  -0.098   0.000
  131    1 -23.220   1.117   0.000
  132    1 -21.816   1.117   0.000
  133    1 -21.115 -26.816   0.000
  134    1 -19.713 -26.816   0.000
  135    1 -19.012 -25.602   0.000
  136    1 -17.609 -25.602   0.000
  137    1 -21.115 -24.388   0.000
  138    1 -19.713 -24.388   0.000
  139    1 -19.012 -23.172   0.000
  140    1 -17.639 -23.222  -0.145
  141    1 -21.161 -22.016  -0.361
  142    1 -19.753 -22.016  -0.303
  143    1 -19.090 -20.808  -0.362
  144    1 -17.751 -20.864  -0.049
  145    1 -21.193 -19.633  -0.754
  146    1 -19.880 -19.682  -0.144
  147    1 -21.163  -4.836  -0.748
  148    1 -19.855  -4.797  -0.135
  149    1 -19.092  -3.673  -0.321
  150    1 -17.748  -3.621   0.007
  151    1 -21.143  -2.468  -0.363
  152    1 -19.758  -2.461  -0.300
  153    1 -19.012  -1.312   0.000
  154    1 -17.640  -1.261  -0.091
  155    1 -21.115  -0.098   0.000
  156    1 -19.713  -0.098   0.000
  157    1 -19.012   1.117   0.000
  158    1 -17.609   1.117   0.000
  159    1 -16.908 -26.816   0.000
  160    1 -15.505 -26.816   0.000
  161    1 -14.804 -25.602   0.000
  162    1 -13.401 -25.602   0.000
  163    1 -16.908 -24.388   0.000
  164    1 -15.505 -24.388   0.000
  165    1 -14.804 -23.172   0.000
  166    1 -13.401 -23.172   0.000
  167    1 -16.975 -22.032  -0.324
  168    1 -15.583 -22.035  -0.237
  169    1 -15.041 -20.850   0.168
  170    1 -13.627 -20.849   0.321
  171    1 -15.034  -3.656   0.219
  172    1 -13.638  -3.651   0.344
  173    1 -16.987  -2.468  -0.298
  174    1 -15.602  -2.456  -0.233
  175    1 -14.804  -1.312   0.000
  176    1 -13.401  -1.312   0.000
  177    1 -16.908  -0.098   0.000
  178    1 -15.505  -0.098   0.000
  179    1 -14.804   1.117   0.000
  180    1 -13.401   1.117   0.000
  181    1 -12.700 -26.816   0.000
  182    1 -11.298 -26.816   0.000
  183    1 -10.596 -25.602   0.000
  184    1  -9.193 -25.602   0.000
  185    1 -12.700 -24.388   0.000
  186    1 -11.298 -24.388   0.000
  187    1 -10.596 -23.172   0.000
  188    1  -9.193 -23.172   0.000
  189    1 -12.745 -21.933   0.039
  190    1 -11.298 -21.958   0.000
  191    1 -10.596 -20.691   0.024
  192    1  -9.193 -20.744   0.000
  193    1 -11.108 -19.385   0.324
  194    1 -10.412 -18.146   0.185
  195    1  -9.088 -18.278  -0.225
  196    1  -9.007 -15.849  -0.028
  197    1  -9.001 -13.394  -0.144
  198    1  -8.996 -11.084  -0.128
  199    1  -9.005  -8.646  -0.020
  200    1 -10.384  -6.336   0.207
  201    1  -9.071  -6.215  -0.243
  202    1 -11.091  -5.124   0.331
  203    1 -10.596  -3.797   0.041
  204    1  -9.193  -3.742   0.000
  205    1 -12.743  -2.543   0.046
  206    1 -11.298  -2.526   0.000
  207    1 -10.596  -1.312   0.000
  208    1  -9.193  -1.312   0.000
  209    1 -12.700  -0.098   0.000
  210    1 -11.298  -0.098   0.000
  211    1 -10.596   1.117   0.000
  212    1  -9.193   1.117   0.000
  213    1  -8.492 -26.816   0.000
  214    1  -7.090 -26.816   0.000
  215    1  -6.388 -25.602   0.000
  216    1  -4.986 -25.602   0.000
  217    1  -8.492 -24.388   0.000
  218    1  -7.090 -24.388   0.000
  219    1  -6.388 -23.172   0.000
  220    1  -4.986 -23.172   0.000
  221    1  -8.492 -21.958   0.000
  222    1  -7.090 -21.958   0.000
  223    1  -6.388 -20.744   0.000
  224    1  -4.986 -20.744   0.000
  225    1  -8.492 -19.529   0.000
  226    1  -7.090 -19.529   0.000
  227    1  -6.388 -18.315   0.000
  228    1  -4.986 -18.315   0.000
  229    1  -8.388 -17.086  -0.343
  230    1  -7.031 -17.101  -0.162
  231    1  -6.388 -15.886   0.000
  232    1  -4.986 -15.886   0.000
  233    1  -8.403 -14.638  -0.313
  234    1  -7.019 -14.653  -0.274
  235    1  -6.338 -13.464  -0.320
  236    1  -4.986 -13.457   0.000
  237    1  -8.365 -12.229  -0.727
  238    1  -6.955 -12.239  -0.644
  239    1  -6.327 -11.017  -0.377
  240    1  -4.986 -11.028   0.000
  241    1  -8.403  -9.850  -0.299
  242    1  -7.008  -9.822  -0.286
  243    1  -6.388  -8.599   0.000
  244    1  -4.986  -8.599   0.000
  245    1  -8.387  -7.432  -0.330
  246    1  -7.026  -7.396  -0.127
  247    1  -6.388  -6.170   0.000
  248    1  -4.986  -6.170   0.000
  249    1  -8.492  -4.956   0.000
  250    1  -7.090  -4.956   0.000
  251    1  -6.388  -3.742   0.000
  252    1  -4.986  -3.742   0.000
  253    1  -8.492  -2.526   0.000
  254    1  -7.090  -2.526   0.000
  255    1  -6.388  -1.312   0.000
  256    1  -4.986  -1.312   0.000
  257    1  -8.492  -0.098   0.000
  258    1  -7.090  -0.098   0.000
  259    1  -6.388   1.117   0.000
  260    1  -4.986   1.117   0.000
  261    1  -4.284 -26.816   0.000
  262    1  -2.882 -26.816   0.000
  263    1  -2.180 -25.602   0.000
  264    1  -0.778 -25.602   0.000
  265    1  -4.284 -24.388   0.000
  266    1  -2.882 -24.388   0.000
  267    1  -2.180 -23.172   0.000
  268    1  -0.778 -23.172   0.000
  269    1  -4.284 -21.958   0.000
  270    1  -2.882 -21.958   0.000
  271    1  -2.180 -20.744   0.000
  272    1  -0.778 -20.744   0.000
  273    1  -4.284 -19.529   0.000
  274    1  -2.882 -19.529   0.000
  275    1  -2.180 -18.315   0.000
  276    1  -0.778 -18.315   0.000
  277    1  -4.284 -17.101   0.000
  278    1  -2.882 -17.101   0.000
  279    1  -2.180 -15.886   0.000
  280    1  -0.778 -15.886   0.000
  281    1  -4.284 -14.671   0.000
  282    1  -2.882 -14.671   0.000
  283    1  -2.180 -13.457   0.000
  284    1  -0.778 -13.457   0.000
  285    1  -4.284 -12.243   0.000
  286    1  -2.882 -12.243   0.000
  287    1  -2.180 -11.028   0.000
  288    1  -0.778 -11.028   0.000
  289    1  -4.284  -9.813   0.000
  290    1  -2.882  -9.813   0.000
  291    1  -2.180  -8.599   0.000
  292    1  -0.778  -8.599   0.000
  293    1  -4.284  -7.385   0.000
  294    1  -2.882  -7.385   0.000
  295    1  -2.180  -6.170   0.000
  296    1  -0.778  -6.170   0.000
  297    1  -4.284  -4.956   0.000
  298    1  -2.882  -4.956   0.000
  299    1  -2.180  -3.742   0.000
  300    1  -0.778  -3.742   0.000
  301    1  -4.284  -2.526   0.000
  302    1  -2.882  -2.526   0.000
  303    1  -2.180  -1.312   0.000
  304    1  -0.778  -1.312   0.000
  305    1  -4.284  -0.098   0.000
  306    1  -2.882  -0.098   0.000
  307    1  -2.180   1.117   0.000
  308    1  -0.778   1.117   0.000
  309    1 -33.738 -26.816  21.543
  310    1 -32.336 -26.816  21.543
  311    1 -31.635 -25.602  21.543
  312    1 -30.232 -25.602  21.543
  313    1 -33.738 -24.388  21.543
  314    1 -32.336 -24.388  21.543
  315    1 -31.635 -23.172  21.543
  316    1 -30.232 -23.172  21.543
  317    1 -33.738 -21.958  21.543
  318    1 -32.336 -21.958  21.543
  319    1 -31.635 -20.744  21.543
  320    1 -30.232 -20.744  21.543
  321    1 -33.738 -19.529  21.543
  322    1 -32.336 -19.529  21.543
  323    1 -31.635 -18.315  21.543
  324    1 -30.232 -18.315  21.543
  325    1 -33.738 -17.101  21.543
  326    1 -32.336 -17.101  21.543
  327    1 -31.635 -15.886  21.543
  328    1 -30.232 -15.886  21.543
  329    1 -33.738 -14.671  21.543
  330    1 -32.336 -14.671  21.543
  331    1 -31.635 -13.457  21.543
  332    1 -30.232 -13.457  21.543
  333    1 -33.738 -12.243  21.543
  334    1 -32.336 -12.243  21.543
  335    1 -31.635 -11.028  21.543
  336    1 -30.232 -11.028  21.543
  337    1 -33.738  -9.813  21.543
  338    1 -32.336  -9.813  21.543
  339    1 -31.635  -8.599  21.543
  340    1 -30.232  -8.599  21.543
  341    1 -33.738  -7.385  21.543
  342    1 -32.336  -7.385  21.543
  343    1 -31.635  -6.170  21.543
  344    1 -30.232  -6.170  21.543
  345    1 -33.738  -4.956  21.543
  346    1 -32.336  -4.956  21.543
  347    1 -31.635  -3.742  21.543
  348    1 -30.232  -3.742  21.543
  349    1 -33.738  -2.526  21.543
  350    1 -32.336  -2.526  21.543
  351    1 -31.635  -1.312  21.543
  352    1 -30.232  -1.312  21.543
  353    1 -33.738  -0.098  21.543
  354    1 -32.336  -0.098  21.543
  355    1 -31.635   1.117  21.543
  356    1 -30.232   1.117  21.543
  357    1 -29.531 -26.816  21.543
  358    1 -28.129 -26.816  21.543
  359    1 -27.427 -25.602  21.543
  360    1 -26.024 -25.602  21.543
  361    1 -29.531 -24.388  21.543
  362    1 -28.129 -24.388  21.543
  363    1 -27.427 -23.172  21.543
  364    1 -26.024 -23.172  21.543
  365    1 -29.531 -21.958  21.543
  366    1 -28.129 -21.958  21.543
  367    1 -27.427 -20.744  21.543
  368    1 -26.024 -20.744  21.543
  369    1 -29.531 -19.529  21.543
  370    1 -28.129 -19.529  21.543
  371    1 -27.427 -18.315  21.543
  372    1 -26.058 -18.378  21.696
  373    1 -29.531 -17.101  21.543
  374    1 -28.129 -17.101  21.543
  375    1 -27.427 -15.886  21.543
  376    1 -26.049 -15.994  21.786
  377    1 -29.531 -14.671  21.543
  378    1 -28.129 -14.671  21.543
  379    1 -27.383 -13.466  21.522
  380    1 -25.992 -13.703  21.223
  381    1 -29.531 -12.243  21.543
  382    1 -28.129 -12.243  21.543
  383    1 -27.381 -11.019  21.536
  384    1 -25.986 -10.781  21.236
  385    1 -29.531  -9.813  21.543
  386    1 -28.129  -9.813  21.543
  387    1 -27.427  -8.599  21.543
  388    1 -26.052  -8.484  21.826
  389    1 -29.531  -7.385  21.543
  390    1 -28.129  -7.385  21.543
  391    1 -27.427  -6.170  21.543
  392    1 -26.058  -6.117  21.691
  393    1 -29.531  -4.956  21.543
  394    1 -28.129  -4.956  21.543
  395    1 -27.427  -3.742  21.543
  396    1 -26.024  -3.742  21.543
  397    1 -29.531  -2.526  21.543
  398    1 -28.129  -2.526  21.543
  399    1 -27.427  -1.312  21.543
  400    1 -26.024  -1.312  21.543
  401    1 -29.531  -0.098  21.543
  402    1 -28.129  -0.098  21.543
  403    1 -27.427   1.117  21.543
  404    1 -26.024   1.117  21.543
  405    1 -25.323 -26.816  21.543
  406    1 -23.921 -26.816  21.543
  407    1 -23.220 -25.602  21.543
  408    1 -21.816 -25.602  21.543
  409    1 -25.323 -24.388  21.543
  410    1 -23.921 -24.388  21.543
  411    1 -23.220 -23.172  21.543
  412    1 -21.816 -23.172  21.543
  413    1 -25.323 -21.958  21.543
  414    1 -23.921 -21.958  21.543
  415    1 -23.270 -20.807  21.931
  416    1 -21.886 -20.864  22.176
  417    1 -25.323 -19.529  21.543
  418    1 -23.966 -19.602  21.851
  419    1 -23.245 -18.410  21.857
  420    1 -21.871 -18.536  21.647
  421    1 -25.366 -17.199  21.868
  422    1 -23.967 -17.263  21.580
  423    1 -25.303 -14.934  21.319
  424    1 -25.282  -9.543  21.374
  425    1 -25.348  -7.263  21.906
  426    1 -23.964  -7.188  21.560
  427    1 -23.241  -6.061  21.881
  428    1 -21.863  -5.963  21.701
  429    1 -25.323  -4.956  21.543
  430    1 -23.958  -4.876  21.865
  431    1 -23.247  -3.671  21.938
  432    1 -21.878  -3.616  22.205
  433    1 -25.323  -2.526  21.543
  434    1 -23.921  -2.526  21.543
  435    1 -23.220  -1.312  21.543
  436    1 -21.816  -1.312  21.543
  437    1 -25.323  -0.098  21.543
  438    1 -23.921  -0.098  21.543
  439    1 -23.220   1.117  21.543
  440    1 -21.816   1.117  21.543
  441    1 -21.115 -26.816  21.543
  442    1 -19.713 -26.816  21.543
  443    1 -19.012 -25.602  21.543
  444    1 -17.609 -25.602  21.543
  445    1 -21.115 -24.388  21.543
  446    1 -19.713 -24.388  21.543
  447    1 -19.012 -23.172  21.543
  448    1 -17.642 -23.224  21.685
  449    1 -21.155 -22.012  21.888
  450    1 -19.774 -22.036  21.838
  451    1 -19.100 -20.812  21.879
  452    1 -17.747 -20.887  21.560
  453    1 -21.180 -19.644  22.241
  454    1 -19.858 -19.678  21.676
  455    1 -21.181  -4.846  22.286
  456    1 -19.865  -4.826  21.679
  457    1 -19.092  -3.672  21.836
  458    1 -17.758  -3.606  21.505
  459    1 -21.149  -2.463  21.944
  460    1 -19.767  -2.461  21.790
  461    1 -19.012  -1.312  21.543
  462    1 -17.637  -1.257  21.688
  463    1 -21.115  -0.098  21.543
  464    1 -19.713  -0.098  21.543
  465    1 -19.012   1.117  21.543
  466    1 -17.609   1.117  21.543
  467    1 -16.908 -26.816  21.543
  468    1 -15.505 -26.816  21.543
  469    1 -14.804 -25.602  21.543
  470    1 -13.401 -25.602  21.543
  471    1 -16.908 -24.388  21.543
  472    1 -15.505 -24.388  21.543
  473    1 -14.804 -23.172  21.543
  474    1 -13.401 -23.172  21.543
  475    1 -16.979 -22.037  21.867
  476    1 -15.584 -22.034  21.788
  477    1 -15.040 -20.838  21.320
  478    1 -13.627 -20.853  21.203
  479    1 -15.030  -3.630  21.299
  480    1 -13.622  -3.634  21.209
  481    1 -16.982  -2.465  21.844
  482    1 -15.574  -2.452  21.761
  483    1 -14.804  -1.312  21.543
  484    1 -13.401  -1.312  21.543
  485    1 -16.908  -0.098  21.543
  486    1 -15.505  -0.098  21.543
  487    1 -14.804   1.117  21.543
  488    1 -13.401   1.117  21.543
  489    1 -12.700 -26.816  21.543
  490    1 -11.298 -26.816  21.543
  491    1 -10.596 -25.602  21.543
  492    1  -9.193 -25.602  21.543
  493    1 -12.700 -24.388  21.543
  494    1 -11.298 -24.388  21.543
  495    1 -10.596 -23.172  21.543
  496    1  -9.193 -23.172  21.543
  497    1 -12.739 -21.932  21.532
  498    1 -11.298 -21.958  21.543
  499    1 -10.594 -20.682  21.534
  500    1  -9.193 -20.744  21.543
  501    1 -11.093 -19.373  21.232
  502    1 -10.406 -18.135  21.343
  503    1  -9.103 -18.271  21.787
  504    1  -9.022 -15.850  21.585
  505    1  -8.998 -13.426  21.668
  506    1  -8.998 -11.100  21.679
  507    1  -9.007  -8.664  21.555
  508    1 -10.392  -6.338  21.347
  509    1  -9.085  -6.197  21.771
  510    1 -11.095  -5.120  21.226
  511    1 -10.587  -3.807  21.511
  512    1  -9.193  -3.742  21.543
  513    1 -12.750  -2.537  21.521
  514    1 -11.298  -2.526  21.543
  515    1 -10.596  -1.312  21.543
  516    1  -9.193  -1.312  21.543
  517    1 -12.700  -0.098  21.543
  518    1 -11.298  -0.098  21.543
  519    1 -10.596   1.117  21.543
  520    1  -9.193   1.117  21.543
  521    1  -8.492 -26.816  21.543
  522    1  -7.090 -26.816  21.543
  523    1  -6.388 -25.602  21.543
  524    1  -4.986 -25.602  21.543
  525    1  -8.492 -24.388  21.543
  526    1  -7.090 -24.388  21.543
  527    1  -6.388 -23.172  21.543
  528    1  -4.986 -23.172  21.543
  529    1  -8.492 -21.958  21.543
  530    1  -7.090 -21.958  21.543
  531    1  -6.388 -20.744  21.543
  532    1  -4.986 -20.744  21.543
  533    1  -8.492 -19.529  21.543
  534    1  -7.090 -19.529  21.543
  535    1  -6.388 -18.315  21.543
  536    1  -4.986 -18.315  21.543
  537    1  -8.391 -17.075  21.886
  538    1  -7.036 -17.105  21.720
  539    1  -6.388 -15.886  21.543
  540    1  -4.986 -15.886  21.543
  541    1  -8.398 -14.654  21.865
  542    1  -7.032 -14.669  21.820
  543    1  -6.330 -13.480  21.928
  544    1  -4.986 -13.457  21.543
  545    1  -8.376 -12.265  22.286
  546    1  -6.964 -12.254  22.217
  547    1  -6.324 -11.035  21.906
  548    1  -4.986 -11.028  21.543
  549    1  -8.382  -9.853  21.859
  550    1  -7.010  -9.829  21.869
  551    1  -6.388  -8.599  21.543
  552    1  -4.986  -8.599  21.543
  553    1  -8.401  -7.416  21.851
  554    1  -7.025  -7.385  21.698
  555    1  -6.388  -6.170  21.543
  556    1  -4.986  -6.170  21.543
  557    1  -8.492  -4.956  21.543
  558    1  -7.090  -4.956  21.543
  559    1  -6.388  -3.742  21.543
  560    1  -4.986  -3.742  21.543
  561    1  -8.492  -2.526  21.543
  562    1  -7.090  -2.526  21.543
  563    1  -6.388  -1.312  21.543
  564    1  -4.986  -1.312  21.543
  565    1  -8.492  -0.098  21.543
  566    1  -7.090  -0.098  21.543
  567    1  -6.388   1.117  21.543
  568    1  -4.986   1.117  21.543
  569    1  -4.284 -26.816  21.543
  570    1  -2.882 -26.816  21.543
  571    1  -2.180 -25.602  21.543
  572    1  -0.778 -25.602  21.543
  573    1  -4.284 -24.388  21.543
  574    1  -2.882 -24.388  21.543
  575    1  -2.180 -23.172  21.543
  576    1  -0.778 -23.172  21.543
  577    1  -4.284 -21.958  21.543
  578    1  -2.882 -21.958  21.543
  579    1  -2.180 -20.744  21.543
  580    1  -0.778 -20.744  21.543
  581    1  -4.284 -19.529  21.543
  582    1  -2.882 -19.529  21.543
  583    1  -2.180 -18.315  21.543
  584    1  -0.778 -18.315  21.543
  585    1  -4.284 -17.101  21.543
  586    1  -2.882 -17.101  21.543
  587    1  -2.180 -15.886  21.543
  588    1  -0.778 -15.886  21.543
  589    1  -4.284 -14.671  21.543
  590    1  -2.882 -14.671  21.543
  591    1  -2.180 -13.457  21.543
  592    1  -0.778 -13.457  21.543
  593    1  -4.284 -12.243  21.543
  594    1  -2.882 -12.243  21.543
  595    1  -2.180 -11.028  21.543
  596    1  -0.778 -11.028  21.543
  597    1  -4.284  -9.813  21.543
  598    1  -2.882  -9.813  21.543
  599    1  -2.180  -8.599  21.543
  600    1  -0.778  -8.599  21.543
  601    1  -4.284  -7.385  21.543
  602    1  -2.882  -7.385  21.543
  603    1  -2.180  -6.170  21.543
  604    1  -0.778  -6.170  21.543
  605    1  -4.284  -4.956  21.543
  606    1  -2.882  -4.956  21.543
  607    1  -2.180  -3.742  21.543
  608    1  -0.778  -3.742  21.543
  609    1  -4.284  -2.526  21.543
  610    1  -2.882  -2.526  21.543
  611    1  -2.180  -1.312  21.543
  612    1  -0.778  -1.312  21.543
  613    1  -4.284  -0.098  21.543
  614    1  -2.882  -0.098  21.543
  615    1  -2.180   1.117  21.543
  616    1  -0.778   1.117  21.543
  617    1 -25.459 -11.573   1.296
  618    1 -25.464 -12.921   1.326
  619    1 -25.006 -13.554   2.434
  620    1 -24.446 -14.796   2.405
  621    1 -24.288 -15.296   1.146
  622    1 -23.554 -16.495   1.075
  623    1 -22.906 -17.087   2.265
  624    1 -21.823 -17.955   2.304
  625    1 -21.180 -18.235   1.094
  626    1 -19.957 -18.960   1.085
  627    1 -19.400 -19.402   2.288
  628    1 -18.092 -19.900   2.243
  629    1 -17.302 -20.144   1.065
  630    1 -15.900 -20.176   1.124
  631    1 -15.379 -20.069   2.379
  632    1 -14.028 -19.895   2.426
  633    1 -13.225 -19.992   1.326
  634    1 -12.058 -19.314   1.332
  635    1 -11.729 -18.558   2.421
  636    1 -10.974 -17.428   2.392
  637    1 -10.586 -17.072   1.133
  638    1  -9.877 -15.871   1.057
  639    1  -9.686 -15.040   2.250
  640    1  -9.500 -13.633   2.284
  641    1  -9.585 -12.955   1.091
  642    1  -9.604 -11.540   1.097
  643    1  -9.505 -10.842   2.294
  644    1  -9.656  -9.462   2.241
  645    1  -9.844  -8.615   1.088
  646    1 -10.565  -7.420   1.143
  647    1 -10.978  -7.054   2.394
  648    1 -11.742  -5.939   2.433
  649    1 -12.068  -5.218   1.305
  650    1 -13.202  -4.510   1.319
  651    1 -14.010  -4.625   2.440
  652    1 -15.363  -4.467   2.399
  653    1 -15.895  -4.328   1.155
  654    1 -17.277  -4.344   1.107
  655    1 -18.102  -4.620   2.245
  656    1 -19.386  -5.154   2.272
  657    1 -19.974  -5.523   1.073
  658    1 -21.207  -6.205   1.086
  659    1 -21.828  -6.535   2.282
  660    1 -22.933  -7.378   2.219
  661    1 -23.556  -7.950   1.060
  662    1 -24.226  -9.181   1.111
  663    1 -24.324  -9.730   2.381
  664    1 -24.954 -10.932   2.409
  665    1 -25.035 -11.576   3.609
  666    1 -25.084 -12.933   3.627
  667    1 -24.822 -13.638   4.727
  668    1 -24.459 -14.990   4.727
  669    1 -24.151 -15.535   3.530
  670    1 -23.414 -16.729   3.518
  671    1 -23.064 -17.408   4.727
  672    1 -22.074 -18.398   4.727
  673    1 -21.409 -18.613   3.501
  674    1 -20.168 -19.299   3.498
  675    1 -19.656 -19.793   4.727
  676    1 -18.303 -20.155   4.727
  677    1 -17.529 -20.157   3.514
  678    1 -16.141 -20.187   3.511
  679    1 -15.512 -20.155   4.727
  680    1 -14.159 -19.793   4.727
  681    1 -13.466 -19.557   3.611
  682    1 -12.280 -18.916   3.601
  683    1 -11.742 -18.398   4.727
  684    1 -10.752 -17.408   4.727
  685    1 -10.415 -16.856   3.516
  686    1  -9.772 -15.632   3.514
  687    1  -9.356 -14.990   4.727
  688    1  -8.993 -13.638   4.727
  689    1  -9.194 -12.950   3.481
  690    1  -9.158 -11.540   3.492
  691    1  -8.993 -10.848   4.727
  692    1  -9.356  -9.494   4.727
  693    1  -9.767  -8.859   3.505
  694    1 -10.441  -7.647   3.522
  695    1 -10.752  -7.078   4.727
  696    1 -11.742  -6.088   4.727
  697    1 -12.292  -5.590   3.614
  698    1 -13.460  -4.943   3.616
  699    1 -14.159  -4.692   4.727
  700    1 -15.512  -4.330   4.727
  701    1 -16.149  -4.305   3.529
  702    1 -17.549  -4.382   3.520
  703    1 -18.303  -4.330   4.727
  704    1 -19.656  -4.693   4.727
  705    1 -20.136  -5.262   3.489
  706    1 -21.387  -5.899   3.488
  707    1 -22.074  -6.088   4.727
  708    1 -23.064  -7.078   4.727
  709    1 -23.424  -7.738   3.495
  710    1 -24.079  -8.960   3.509
  711    1 -24.459  -9.494   4.727
  712    1 -24.822 -10.848   4.727
  713    1 -24.913 -11.543   5.936
  714    1 -24.913 -12.943   5.936
  715    1 -24.822 -13.638   7.145
  716    1 -24.459 -14.990   7.145
  717    1 -24.191 -15.638   5.936
  718    1 -23.491 -16.852   5.936
  719    1 -23.064 -17.408   7.145
  720    1 -22.074 -18.398   7.145
  721    1 -21.517 -18.825   5.936
  722    1 -20.304 -19.525   5.936
  723    1 -19.656 -19.793   7.145
  724    1 -18.303 -20.155   7.145
  725    1 -17.608 -20.247   5.936
  726    1 -16.208 -20.247   5.936
  727    1 -15.512 -20.155   7.145
  728    1 -14.159 -19.793   7.145
  729    1 -13.511 -19.525   5.936
  730    1 -12.298 -18.825   5.936
  731    1 -11.742 -18.398   7.145
  732    1 -10.752 -17.408   7.145
  733    1 -10.325 -16.852   5.936
  734    1  -9.624 -15.638   5.936
  735    1  -9.356 -14.990   7.145
  736    1  -8.993 -13.638   7.145
  737    1  -8.902 -12.943   5.936
  738    1  -8.902 -11.543   5.936
  739    1  -8.993 -10.848   7.145
  740    1  -9.356  -9.494   7.145
  741    1  -9.624  -8.846   5.936
  742    1 -10.325  -7.634   5.936
  743    1 -10.752  -7.078   7.145
  744    1 -11.742  -6.088   7.145
  745    1 -12.298  -5.661   5.936
  746    1 -13.511  -4.961   5.936
  747    1 -14.159  -4.692   7.145
  748    1 -15.512  -4.330   7.145
  749    1 -16.208  -4.239   5.936
  750    1 -17.608  -4.239   5.936
  751    1 -18.303  -4.330   7.145
  752    1 -19.656  -4.693   7.145
  753    1 -20.304  -4.961   5.936
  754    1 -21.517  -5.661   5.936
  755    1 -22.074  -6.088   7.145
  756    1 -23.064  -7.078   7.145
  757    1 -23.491  -7.634   5.936
  758    1 -24.191  -8.847   5.936
  759    1 -24.459  -9.494   7.145
  760    1 -24.822 -10.848   7.145
  761    1 -24.913 -11.543   8.354
  762    1 -24.913 -12.943   8.354
  763    1 -24.822 -13.638   9.563
  764    1 -24.459 -14.990   9.563
  765    1 -24.191 -15.638   8.354
  766    1 -23.491 -16.852   8.354
  767    1 -23.064 -17.408   9.563
  768    1 -22.074 -18.398   9.563
  769    1 -21.517 -18.825   8.354
  770    1 -20.304 -19.525   8.354
  771    1 -19.656 -19.793   9.563
  772    1 -18.303 -20.155   9.563
  773    1 -17.608 -20.247   8.354
  774    1 -16.208 -20.247   8.354
  775    1 -15.512 -20.155   9.563
  776    1 -14.159 -19.793   9.563
  777    1 -13.511 -19.525   8.354
  778    1 -12.298 -18.825   8.354
  779    1 -11.742 -18.398   9.563
  780    1 -10.752 -17.408   9.563
  781    1 -10.325 -16.852   8.354
  782    1  -9.624 -15.638   8.354
  783    1  -9.356 -14.990   9.563
  784    1  -8.993 -13.638   9.563
  785    1  -8.902 -12.943   8.354
  786    1  -8.902 -11.543   8.354
  787    1  -8.993 -10.848   9.563
  788    1  -9.356  -9.494   9.563
  789    1  -9.624  -8.846   8.354
  790    1 -10.325  -7.634   8.354
  791    1 -10.752  -7.078   9.563
  792    1 -11.742  -6.088   9.563
  793    1 -12.298  -5.661   8.354
  794    1 -13.511  -4.961   8.354
  795    1 -14.159  -4.692   9.563
  796    1 -15.512  -4.330   9.563
  797    1 -16.208  -4.239   8.354
  798    1 -17.608  -4.239   8.354
  799    1 -18.303  -4.330   9.563
  800    1 -19.656  -4.693   9.563
  801    1 -20.304  -4.961   8.354
  802    1 -21.517  -5.661   8.354
  803    1 -22.074  -6.088   9.563
  804    1 -23.064  -7.078   9.563
  805    1 -23.491  -7.634   8.354
  806    1 -24.191  -8.847   8.354
  807    1 -24.459  -9.494   9.563
  808    1 -24.822 -10.848   9.563
  809    1 -24.913 -11.543  10.771
  810    1 -24.913 -12.943  10.771
  811    1 -24.822 -13.638  11.981
  812    1 -24.459 -14.990  11.981
  813    1 -24.191 -15.638  10.771
  814    1 -23.491 -16.852  10.771
  815    1 -23.064 -17.408  11.981
  816    1 -22.074 -18.398  11.981
  817    1 -21.517 -18.825  10.771
  818    1 -20.304 -19.525  10.771
  819    1 -19.656 -19.793  11.981
  820    1 -18.303 -20.155  11.981
  821    1 -17.608 -20.247  10.771
  822    1 -16.208 -20.247  10.771
  823    1 -15.512 -20.155  11.981
  824    1 -14.159 -19.793  11.981
  825    1 -13.511 -19.525  10.771
  826    1 -12.298 -18.825  10.771
  827    1 -11.742 -18.398  11.981