LAMMPS (29 Oct 2020)
##lammps #碳纳米管交链石墨烯拉伸分子动力模拟
processors      * * 2
units           metal
boundary        p  p  p
atom_style      atomic
read_data       gr_cnt.txt   #读入结构文件
Reading data file ...
  orthogonal box = (-33.662210 -26.751400 -80.000000) to (67.324420 60.756630 80.000000)
  4 by 3 by 2 MPI processor grid
  reading atoms ...
  9216 atoms
  read_data CPU = 0.015 seconds
mass    		*  12.011    #C     碳原子
pair_style      airebo 3.0 1 0
pair_coeff		* *  CH_tensile.airebo C  #势函数文件
Reading airebo potential file CH_tensile.airebo with DATE: 2011-10-25
neighbor        2.0 nsq
neigh_modify delay 0 every 1 check yes

timestep     0.0005    #时间步0.5fs

group gra1 type 1
9216 atoms in group gra1
compute gra1temp gra1 temp/com   #计算系统温度
compute atompe all pe/atom       #计算每个原子的势能
compute atomstress all stress/atom NULL   #计算每个原子的应力(六个方向，x,y,z,xy,xz,yz)

minimize	1.0e-6 1.0e-6 10000 10000	#能量最小化
Neighbor list info ...
  update every 1 steps, delay 0 steps, check yes
  max neighbors/atom: 2000, page size: 100000
  master list distance cutoff = 12.2
  ghost atom cutoff = 12.2
  1 neighbor lists, perpetual/occasional/extra = 1 0 0
  (1) pair airebo, perpetual
      attributes: full, newton on, ghost
      pair build: full/nsq/ghost
      stencil: none
      bin: none
Per MPI rank memory allocation (min/avg/max) = 5.165 | 5.456 | 5.930 Mbytes
Step Temp E_pair E_mol TotEng Press 
       0            0   -71215.556            0   -71215.556    704.59175 
     153            0   -71644.932            0   -71644.932   -1847.4649 
Loop time of 2.46368 on 24 procs for 153 steps with 9216 atoms

98.1% CPU use with 24 MPI tasks x no OpenMP threads

Minimization stats:
  Stopping criterion = energy tolerance
  Energy initial, next-to-last, final = 
     -71215.5561217376   -71644.867703853   -71644.931839202
  Force two-norm initial, final = 89.488950 2.2478228
  Force max component initial, final = 3.9468609 0.098198731
  Final line search alpha, max atom move = 0.22099649 0.021701574
  Iterations, force evaluations = 153 305

MPI task timing breakdown:
Section |  min time  |  avg time  |  max time  |%varavg| %total
---------------------------------------------------------------
Pair    | 0.48772    | 1.2488     | 2.3223     |  65.0 | 50.69
Neigh   | 0.030667   | 0.072715   | 0.11684    |  14.8 |  2.95
Comm    | 0.021378   | 1.0907     | 1.929      |  72.8 | 44.27
Output  | 0          | 0          | 0          |   0.0 |  0.00
Modify  | 0          | 0          | 0          |   0.0 |  0.00
Other   |            | 0.05144    |            |       |  2.09

Nlocal:        384.000 ave         630 max         194 min
Histogram: 6 6 0 0 0 0 6 0 0 6
Nghost:        1780.75 ave        2426 max        1258 min
Histogram: 12 0 0 0 0 0 0 6 0 6
Neighs:        0.00000 ave           0 max           0 min
Histogram: 24 0 0 0 0 0 0 0 0 0
FullNghs:      80584.3 ave      136620 max       39316 min
Histogram: 9 3 0 0 0 3 3 0 0 6

Total # of neighbors = 1934024
Ave neighs/atom = 209.85503
Neighbor list builds = 5
Dangerous builds = 0

fix    1  gra1 npt temp 300. 300. 0.05  x 0. 0. 0.5  y 0. 0. 0.5  drag 1.2   #npt弛豫，系统控温300K, 面内方向控压为0，
thermo_style custom step temp pe etotal lx ly lz pxx pyy pzz  #输出参数
thermo           1000
dump            1 all custom 2000  gr_cnt_relax.lammpstrj id type x y z c_atompe c_atomstress[1] c_atomstress[2] c_atomstress[3]#弛豫轨迹，每2000步输出一帧轨迹数据
dump_modify 1  sort id
run             50000   #弛豫5万步，即弛豫25 ps
Per MPI rank memory allocation (min/avg/max) = 4.056 | 4.347 | 4.821 Mbytes
Step Temp PotEng TotEng Lx Ly Lz Pxx Pyy Pzz 
     153            0   -71644.932   -71644.932    100.98663     87.50803          160   -2661.6328    -2800.287   -80.474786 
    1000    18.676047   -71662.193   -71639.947    99.398743    86.138821          160    -210.5905    55.210205    257.39619 
    2000    32.548792   -71620.543   -71581.773    97.939481    86.345227          160    -258.6332   -180.66054   -2304.3088 
    3000    53.429337   -71558.593   -71494.951    98.091106    86.253423          160    78.594918    25.732665    239.55849 
    4000     189.9412   -71539.865    -71313.62    99.910041    86.099239          160   -42.332176    162.76362   -471.97796 
    5000    175.26646    -71321.81   -71113.044    99.139874    82.481415          160   -238.99216   -28.776369    430.04709 
    6000    328.18148   -71441.717    -71050.81    99.272003    86.228719          160   -94.053266    187.82861   -1375.5992 
    7000    253.89383   -71306.538   -71004.117     95.87331    86.933492          160   -602.13689   -615.71641      982.778 
    8000     301.8361   -71303.718   -70944.191    93.340776    86.258466          160    1435.9537    20.148767    2330.6963 
    9000    309.57492   -71405.288   -71036.543    99.403596    86.428951          160    70.701366   -309.06399     800.5458 
   10000    287.43768   -71277.005   -70934.629    98.988321    86.913209          160   -456.67871    103.06558    456.38468 
   11000    314.47521   -71366.306   -70991.724    99.910717    86.162978          160   -426.44981   -286.00994    520.57641 
   12000    299.44505   -71327.895   -70971.216    95.578328    86.023309          160   -390.90183    101.08294   -774.09991 
   13000    317.27721   -71321.984   -70944.065    98.919732    86.430361          160   -219.35098   -296.62733    347.99006 
   14000    291.40801   -71331.183   -70984.078    99.249552    87.000872          160    131.50397   -93.015306    498.37071 
   15000    296.59639   -71286.136   -70932.851    99.830763    85.288754          160    562.73896    402.70724     197.1132 
   16000    298.61679   -71333.632    -70977.94    98.586637    86.633999          160    192.61281    159.69795    287.97174 
   17000    292.55988   -71295.919   -70947.442    97.654734     86.22956          160   -590.07811    458.19662    772.86472 
   18000    298.83131   -71311.718    -70955.77    98.030786    86.482068          160     74.83091    543.60989   -1481.7557 
   19000    289.83203   -71318.756   -70973.528    100.08928    86.597893          160    -18.30241    702.63698    862.69492 
   20000    310.70979   -71319.143   -70949.047    99.629557    86.712808          160    393.40427    25.592459   -1194.2667 
   21000    302.13041   -71346.623   -70986.746    98.892134    86.128484          160   -251.30435    345.97881   -1410.3328 
   22000    304.72944   -71312.571   -70949.598    97.402881    86.717127          160   -94.407826   -473.82547    -475.4628 
   23000    313.81828   -71351.036   -70977.237    99.220681     86.77705          160    431.25293    6.0179856    1284.8086 
   24000    291.57139   -71306.165   -70958.864    99.985306    86.522572          160    139.45776    91.198567    1048.3248 
   25000    307.63406    -71327.36   -70960.927    99.825881    86.019179          160    174.89852    731.07672   -543.08436 
   26000    290.91959   -71318.316   -70971.792    98.296889     86.54446          160    277.31751   -309.13946     592.3421 
   27000    287.97767   -71293.996   -70950.976    97.978988    86.587562          160   -358.51763    250.29146    15.771765 
   28000    297.69601   -71332.894   -70978.298    100.11796    86.427234          160   -82.587714   -428.95228    696.07335 
   29000    290.11874   -71296.288   -70950.718    100.09578    86.636207          160    54.337614    153.74204    887.34438 
   30000    300.36717   -71328.073   -70970.296    99.828857    86.555751          160    360.49064    154.21382    957.94023 
   31000    292.01687   -71304.839   -70957.009     98.04675    86.485965          160    67.871232   -455.44129    35.929365 
   32000    295.88512   -71316.882   -70964.443    98.957215    86.650344          160    114.65304    388.95241    168.06053 
   33000    309.46008   -71334.982   -70966.374    100.21038    86.523734          160   -81.013116    649.61697    304.23054 
   34000    304.53414    -71313.44     -70950.7    99.979523     86.35809          160   -531.40375    386.58652    173.09114 
   35000      304.581   -71335.801   -70973.004    99.143573    86.449847          160   -255.65027    170.20022   -47.409231 
   36000    300.20405   -71306.716   -70949.134    98.668423    86.288151          160   -284.23811    241.60053   -1237.0555 
   37000     293.0513   -71324.102   -70975.039    99.646836    86.327608          160     416.4051   -87.856473    15.047768 
   38000    296.88087   -71309.161   -70955.536    100.05813    86.512726          160   -105.03265    7.4464913    547.04206 
   39000    304.65867   -71327.913   -70965.024    100.14023    86.800837          160   -20.529729   -164.37309    450.71662 
   40000    289.46763   -71310.334    -70965.54    98.504521     86.45098          160   -29.580092    83.722907    -25.85832 
   41000    305.15519   -71317.994   -70954.513    98.754676    86.529383          160    205.98694    12.883465   -1168.7147 
   42000    304.22575   -71333.468   -70971.095    99.809915    86.680657          160    -63.71572    80.360114    426.20268 
   43000     298.2526   -71308.415   -70953.157    100.06173    86.560616          160     378.5734   -387.43936    344.35132 
   44000    303.38693   -71329.985   -70968.611    99.364006    86.403578          160    146.87061    236.36686   -252.60966 
   45000    292.41516   -71305.018   -70956.712    98.596282    86.715175          160   -63.672962   -175.14735    28.567367 
   46000    307.12075   -71331.524   -70965.702    99.163992    86.616755          160    203.99026   -173.66014    304.22781 
   47000     298.3909   -71316.926   -70961.503    100.09722      86.4258          160     50.76347    51.748639    585.68359 
   48000    302.15504   -71317.142   -70957.235    99.999194    86.757257          160     32.57961   -205.50303   -158.96923 
   49000    304.51804   -71332.097   -70969.376    99.208191    86.551593          160    213.71822   -58.747586    53.277119 
   50000    296.22904   -71307.049   -70954.201    98.467064    86.438504          160    40.468678   -72.016277   -716.53717 
   50153    303.80005   -71314.138   -70952.272    98.545831    86.501626          160   -142.54749    139.12458   -546.93967 
Loop time of 338.117 on 24 procs for 50000 steps with 9216 atoms

Performance: 6.388 ns/day, 3.757 hours/ns, 147.878 timesteps/s
98.3% CPU use with 24 MPI tasks x no OpenMP threads

MPI task timing breakdown:
Section |  min time  |  avg time  |  max time  |%varavg| %total
---------------------------------------------------------------
Pair    | 98.468     | 198.05     | 324.08     | 638.7 | 58.58
Neigh   | 2.0613     | 4.8132     | 7.6722     | 120.1 |  1.42
Comm    | 3.5728     | 129.98     | 233.87     | 806.8 | 38.44
Output  | 0.070898   | 0.070994   | 0.071647   |   0.1 |  0.02
Modify  | 2.695      | 4.5255     | 9.0566     | 120.7 |  1.34
Other   |            | 0.6759     |            |       |  0.20

Nlocal:        384.000 ave         622 max         186 min
Histogram: 6 6 0 0 0 0 3 3 0 6
Nghost:        1822.75 ave        2480 max        1290 min
Histogram: 12 0 0 0 0 0 0 6 0 6
Neighs:        0.00000 ave           0 max           0 min
Histogram: 24 0 0 0 0 0 0 0 0 0
FullNghs:      80662.7 ave      134113 max       38099 min
Histogram: 6 6 0 0 0 0 3 3 0 6

Total # of neighbors = 1935904
Ave neighs/atom = 210.05903
Neighbor list builds = 322
Dangerous builds = 0

reset_timestep 0
undump  1
dump            1 all custom 2000  gr_cnt_tensile.lammpstrj id type x y z c_atompe c_atomstress[1] c_atomstress[2] c_atomstress[3] #拉伸动画，每2000步输出一帧轨迹数据
dump_modify 1  sort id
unfix 1
fix    1  gra1 npt temp 300. 300. 0.05   x 0. 0. 0.5  drag 1.2   #系统控温300K, x方向控压为0
fix 2 all deform 1 y erate 0.004 remap x    #fix deform, 给y方向盒子一个均匀应变率4*1.0e-8 s-1
variable 	strain_y equal step*0.000002    #0.0005*0.004
variable 	stress_y equal "-pyy*lz/(3.34*10132.5*2)"   #10132.5 单位换算后的大气压强，3.34单层石墨烯厚度，系数2--视交链结构计算厚度为2层石墨烯（拉伸主要是石墨烯纸受力）
fix				def1 all print 100 "${strain_y}  ${stress_y}" file Stress-strain_gr_cnt.txt screen no   #输出应力应变曲线
thermo_style custom step temp pe etotal lx ly lz pxx pyy pzz
thermo           100
run 80000  #运行8万步
Per MPI rank memory allocation (min/avg/max) = 6.256 | 6.561 | 7.049 Mbytes
Step Temp PotEng TotEng Lx Ly Lz Pxx Pyy Pzz 
       0    303.80005   -71314.138   -70952.272    98.545831    86.501626          160   -142.54749    139.12458   -546.93967 
     100    310.43191   -71324.287   -70954.521    98.659772    86.518926          160    131.09071    99.295103   -491.77894 
     200    300.72699    -71316.24   -70958.035    98.713901    86.536227          160    154.74092   -258.33835     -200.047 
     300    300.72189   -71318.202   -70960.002    98.884459    86.553527          160   -38.657002    -165.3956    343.80063 
     400    301.26792   -71322.354   -70963.504    99.132031    86.570827          160   -74.595196   -330.46751    252.04753 
     500    301.42922   -71325.067   -70966.025    99.398749    86.588128          160   -58.131945   -199.40301   -57.750323 
     600    301.75036   -71327.493   -70968.069    99.566746    86.605428          160    94.953824   -251.48242   -403.73003 
     700    302.19634   -71326.846    -70966.89    99.745207    86.622728          160    -63.41838    156.43986   -190.67258 
     800    298.14213   -71323.731   -70968.604    99.863779    86.640029          160    -130.4522   -211.45616    374.52482 
     900    301.45915   -71329.237   -70970.159    99.872498    86.657329          160    14.896242   -38.962708    824.46817 
    1000    297.88422   -71325.141   -70970.321    100.03213    86.674629          160   -246.69823    -360.8475    211.80705 
    1100    299.97631   -71326.858   -70969.546    99.913924     86.69193          160    231.57683      281.257   -197.66738 
    1200    296.11451   -71321.671    -70968.96    99.964553     86.70923          160    -112.3837    64.843503    12.864807 
    1300    301.24105   -71325.884   -70967.066    99.900665     86.72653          160   -164.24619    270.08789   -172.34144 
    1400    293.04325   -71313.683   -70964.629      100.055    86.743831          160   -127.94015   -344.16836   -85.377065 
    1500    298.06417    -71315.89   -70960.856    99.956612    86.761131          160    298.75163   -181.91287    776.58626 
    1600    296.24717   -71311.274   -70958.404    100.18228    86.778431          160   -233.97051   -169.99976    489.77022 
    1700    302.25999   -71315.816   -70955.784     100.1218    86.795731          160   -72.121839    304.23319    130.53551 
    1800    296.92525   -71308.089   -70954.412    100.07258    86.813032          160   -78.271667   -289.55486    39.851667 
    1900    298.19015   -71308.357   -70953.173     100.0609    86.830332          160   -158.00874    -592.7727    184.52848 
    2000     300.9098   -71311.277   -70952.854    99.992334    86.847632          160     370.5598   -588.86744    335.89345 
    2100    295.12041   -71305.216   -70953.688    100.10838    86.864933          160   -217.89883   -373.30083    348.11483 
    2200    293.07008   -71302.421   -70953.335    100.14678    86.882233          160   -270.09518   -656.41172    225.94995 
    2300     299.7007    -71309.11   -70952.127    99.989461    86.899533          160    448.07108   -907.38928    93.704799 
    2400    305.84809   -71317.635   -70953.329    100.15057    86.916834          160   -299.32077   -988.65411  -0.72789832 
    2500    302.89422   -71316.822   -70956.034    99.949544    86.934134          160    127.43685   -774.24124    321.60348 
    2600    302.29585   -71317.574     -70957.5    99.873236    86.951434          160    303.52329   -954.58101    498.10813 
    2700    303.71927   -71321.771   -70960.002    100.02951    86.968735          160   -235.72855   -923.73699    352.11833 
    2800    300.93314   -71321.415   -70962.963    99.960424    86.986035          160   -140.96539   -763.16806   -122.71682 
    2900    308.86058   -71332.349   -70964.455    99.731203    87.003335          160    133.31272   -1175.5908     36.36758 
    3000    302.39946   -71326.581   -70966.383    99.531447    87.020636          160   -25.497908   -1199.2366    -319.2145 
    3100    297.36954   -71321.004   -70966.797    99.304663    87.037936          160   -101.60594   -969.23869   -192.74457 
    3200    295.83265   -71317.659   -70965.283    99.187514    87.055236          160   -46.739762   -1478.0384    66.665788 
    3300    304.92893   -71326.177   -70962.966    99.076337    87.072537          160    146.38406   -959.36734     -282.127 
    3400    299.82494   -71320.956   -70963.825    99.156681    87.089837          160   -312.40522    -1599.148   -567.78429 
    3500    296.88334   -71316.996   -70963.368    98.850345    87.107137          160    292.61659   -1354.3647   -480.72642 
    3600    299.93048    -71318.29   -70961.033    98.922558    87.124438          160   -99.432268    -1668.717   -87.134549 
    3700    301.43055    -71319.55   -70960.506    98.865996    87.141738          160   -256.93238   -1361.1585    32.119662 
    3800    300.68526   -71315.692   -70957.536    98.678065    87.159038          160    298.45727   -1554.9152    139.07047 
    3900    297.21689   -71307.822   -70953.797    98.710795    87.176339          160    -124.8821   -2114.7898   -263.70014 
    4000     300.6615   -71308.833   -70950.705    98.645025    87.193639          160   -93.259814   -1608.3267   -647.14337 
    4100    301.02359   -71307.982   -70949.423    98.424078    87.210939          160    468.23726   -1610.7336    52.554073 
    4200    296.96293    -71302.97   -70949.248    98.509557     87.22824          160   -362.33228   -1590.3688    212.47654 
    4300    300.89441   -71306.716   -70948.311     98.51459     87.24554          160   -126.96932    -1762.496   -93.107921 
    4400    301.09977   -71305.452   -70946.803    98.484606     87.26284          160    366.47266   -2035.6352   -10.786507 
    4500    297.27434   -71301.141   -70947.048     98.74668    87.280141          160   -293.15762   -1909.9251   -263.57087 
    4600    300.47804    -71304.35   -70946.441    98.770708    87.297441          160    203.50543   -1568.8554     -365.783 
    4700    300.40651   -71306.296   -70948.472    98.867822    87.314741          160    140.65199   -1803.8699   -455.38382 
    4800     302.6374   -71310.912   -70950.431    98.993778    87.332042          160   -60.776968   -2152.7092   -286.54358 
    4900    305.24425   -71314.815   -70951.229    99.068961    87.349342          160    243.77559   -1993.2534    32.144532 
    5000    307.53316   -71320.274   -70953.962    99.234089    87.366642          160    190.40768   -1781.6072    154.14053 
    5100    301.37443   -71316.182   -70957.205    99.506467    87.383943          160   -102.09834    -2088.772    40.779828 
    5200    302.55471   -71317.953    -70957.57    99.439594    87.401243          160    139.85288   -1881.9159    9.3179265 
    5300    299.59042   -71314.638   -70957.786    99.587057    87.418543          160   -148.00917   -2312.4345    319.02588 
    5400    297.75052   -71314.427   -70959.767    99.511915    87.435844          160    143.78003   -2223.5776    249.65144 
    5500    294.44938   -71310.058    -70959.33     99.66972    87.453144          160   -96.915199   -2283.2378   -75.726423 
    5600    304.09806   -71320.107   -70957.886    99.691589    87.470444          160    189.31545   -2253.6104   -121.17752 
    5700    297.00965   -71312.139   -70958.361    99.820764    87.487744          160    48.437771   -2499.0851   -403.32431 
    5800    300.17422   -71313.471   -70955.923    99.872108    87.505045          160   -200.48196   -2431.8382   -333.75397 
    5900    302.52347   -71313.907   -70953.562    99.716583    87.522345          160    264.45494   -2167.4653   -205.75819 
    6000    300.14645   -71308.167   -70950.652    99.792434    87.539645          160   -70.555523     -2441.75    146.31257 
    6100    297.06717   -71301.425   -70947.578    99.782842    87.556946          160   -26.023086   -2205.5084    323.20143 
    6200    299.47419   -71301.282   -70944.568    99.922632    87.574246          160    39.596966   -2161.2512     325.5775 
    6300    296.89005   -71297.785    -70944.15    99.979637    87.591546          160    12.852031   -2168.6761    269.51927 
    6400    297.94979   -71297.161   -70942.264    100.10803    87.608847          160   -112.44861   -2287.1896    1.3729212 
    6500    302.97776   -71301.462   -70940.576    100.00749    87.626147          160    215.59728   -2225.0999    266.63088 
    6600    297.14272   -71295.116    -70941.18    100.16239    87.643447          160   -178.59035   -2445.9511    516.56415 
    6700    297.39862   -71294.214   -70939.973    100.07081    87.660748          160    134.77846   -2103.5473    481.30593 
    6800    302.93759   -71300.514   -70939.676    100.17666    87.678048          160    41.440046   -2323.7173    373.77035 
    6900    297.51401   -71293.188    -70938.81     100.2315    87.695348          160   -117.96502   -2539.4472    176.62168 
    7000    297.34199   -71292.468   -70938.295    100.16268    87.712649          160    84.292352   -2389.0306    145.16772 
    7100    300.76793    -71297.04   -70938.786    100.19853    87.729949          160   -190.92997   -2622.5683    350.98575 
    7200    304.35348   -71303.493   -70940.968    99.903505    87.747249          160    268.13239   -2128.6415    391.12805 
    7300    301.04022   -71301.982   -70943.403    99.932519     87.76455          160   -133.62331   -2800.4249    136.57362 
    7400    298.45491   -71300.782   -70945.282    99.721521     87.78185          160    230.16253   -2701.8108   -108.31144 
    7500    302.61904   -71305.924   -70945.465    99.828039     87.79915          160   -101.27045   -2965.2535    27.981699 
    7600    303.13368   -71307.322   -70946.249    99.672198    87.816451          160    56.385709   -2517.2056    68.638885 
    7700     301.8843   -71306.513   -70946.928    99.612873    87.833751          160   -160.46722   -2993.9504   -120.79438 
    7800    301.20919   -71305.382   -70946.602    99.298518    87.851051          160    133.16519   -3055.0997    394.05128 
    7900    300.92045   -71305.513   -70947.077    99.266881    87.868352          160   -94.805393   -3324.1383    315.72564 
    8000    299.50445   -71303.696   -70946.947    99.147846    87.885652          160    -35.25733   -3435.9096   -335.25958 
    8100     298.4487   -71300.054   -70944.562    99.098065    87.902952          160   -120.39489   -3753.3589   -660.30236 
    8200    297.02444   -71296.131   -70942.336    98.877968    87.920253          160    195.79392   -3586.3979    -478.2252 
    8300    297.76586   -71293.511   -70938.832    98.733865    87.937553          160   -110.62838   -3676.5522   -23.800406 
    8400    296.05562   -71288.071   -70935.429    98.599439    87.954853          160   -109.07787    -4101.257    47.484346 
    8500    294.75678   -71284.374    -70933.28    98.442342    87.972154          160     187.4538   -4125.7034    -428.7107 
    8600    298.15055   -71286.016   -70930.879    98.441704    87.989454          160    7.2038636   -3885.1711   -378.58573 
    8700    298.75343   -71284.482   -70928.627    98.548208    88.006754          160   -183.75454   -3811.5114   -566.30585 
    8800    300.69967   -71285.426   -70927.252    98.496196    88.024055          160    79.704709   -3772.1274   -807.77233 
    8900    301.30316   -71286.097   -70927.205    98.370239    88.041355          160    22.668132   -3864.7518   -463.05857 
    9000    300.72407   -71283.869   -70925.666    98.438041    88.058655          160    65.822654   -4137.9025   -124.11782 
    9100    302.51987   -71285.781    -70925.44    98.515043    88.075956          160    132.91657   -3807.8114    109.63453 
    9200      304.882   -71289.897   -70926.742    98.796735    88.093256          160   -205.65443   -3416.0372   -122.40802 
    9300    300.98851   -71286.689   -70928.172    98.967898    88.110556          160    126.32658    -3549.781   -111.80035 
    9400    302.83187   -71288.871   -70928.158    99.118636    88.127857          160    10.779199   -3695.1333    149.96202 
    9500    297.87152   -71284.461   -70929.657    99.221059    88.145157          160    -71.57456   -4043.3008    289.86793 
    9600    302.88276    -71290.34   -70929.567    99.256809    88.162457          160    158.67642   -4044.1495    263.33079 
    9700    300.25821   -71287.675   -70930.028    99.457746    88.179757          160   -87.602624   -4058.6618   -206.15543 
    9800    300.99479   -71288.854   -70930.329    99.518223    88.197058          160    94.986057   -3789.2657   -183.28866 
    9900    301.09691   -71290.217   -70931.571    99.664211    88.214358          160   -185.26382   -3990.0506   -270.76957 
   10000    299.49648   -71288.455   -70931.715    99.616484    88.231658          160   -12.447879   -3987.0155    43.235762 
   10100    301.30431   -71290.949   -70932.056    99.606455    88.248959          160    37.746742   -4362.5185    235.76111 
   10200    299.27299   -71288.097   -70931.624    99.640202    88.266259          160   -16.946504   -3829.6673    77.908374 
   10300    296.84783   -71284.691   -70931.106    99.832729    88.283559          160   -185.85827    -4015.214    125.11004 
   10400    298.86183   -71284.309   -70928.325    99.793874     88.30086          160    279.33234   -3765.6627    238.06519 
   10500    295.88197   -71279.269   -70926.834    99.922988     88.31816          160   -203.57955   -4283.3096    68.907024 
   10600     300.6911   -71282.981   -70924.818    99.875695     88.33546          160    -25.75915   -4357.5675    143.46391 
   10700     297.7961    -71276.96   -70922.245    99.816488    88.352761          160     132.5031   -4370.5643    201.31871 
   10800    300.09524   -71276.694   -70919.241    99.887168    88.370061          160   -99.344503   -4076.7112    292.90966 
   10900     296.2802   -71270.106   -70917.197    99.975438    88.387361          160    31.039649   -4405.9649   -61.624159 
   11000     296.3016   -71266.861   -70913.926    99.949797    88.404662          160   -24.551615   -4480.5775    14.598942 
   11100     298.8611   -71266.788   -70910.804    99.937973    88.421962          160   -122.90385   -4908.8225    257.65724 
   11200    302.71834   -71269.558   -70908.981    99.836302    88.439262          160    171.32007   -4634.9592    77.987701 
   11300     300.0389   -71266.039   -70908.653    99.872254    88.456563          160   -91.169683   -4649.8275   -279.43101 
   11400    304.09648   -71269.555   -70907.335    99.829418    88.473863          160     78.38182   -4554.9543   -18.749252 
   11500    304.04293   -71270.005    -70907.85    99.934041    88.491163          160   -38.729932   -4449.2955   -118.46025 
   11600    304.17357   -71271.809   -70909.498    99.945128    88.508464          160   -9.6046542   -4328.1505    114.58784 
   11700    302.03872   -71271.129    -70911.36    99.894893    88.525764          160    132.83142    -4801.939    629.44832 
   11800    303.97892   -71273.024   -70910.945    99.913114    88.543064          160   -75.249214   -4361.3681    509.54903 
   11900    302.02215    -71271.78   -70912.032    99.917923    88.560365          160  -0.70031089   -4264.8469    156.60158 
   12000    305.77294   -71276.881   -70912.665     99.84205    88.577665          160    10.640053   -4698.9183    69.789257 
   12100    299.33243   -71270.156   -70913.611    99.720115    88.594965          160    -63.39292   -4975.1696    83.254867 
   12200    301.28587   -71272.406   -70913.535    99.644658    88.612266          160    176.60674   -4843.4385    60.531713 
   12300    301.96398    -71272.44   -70912.761    99.710289    88.629566          160   -129.41962   -5076.7532    272.76563 
   12400    301.64906    -71270.66   -70911.356    99.606357    88.646866          160   -78.357393   -5123.0527     365.7871 
   12500    298.88959   -71265.673   -70909.656    99.438534    88.664167          160    75.899987   -5032.0281   -143.88869 
   12600    297.32586   -71263.099   -70908.944    99.366466    88.681467          160   -176.39856    -5212.892   -204.10479 
   12700    301.22977   -71266.773   -70907.968    99.124688    88.698767          160   -29.745875   -5160.8946    53.689751 
   12800    301.48758   -71266.154   -70907.043    98.960706    88.716068          160    115.02087   -5494.9545    183.24183 
   12900    298.49869     -71261.5   -70905.949    98.841388    88.733368          160   -41.745855   -5623.4486   -173.91621 
   13000     294.4219   -71253.813   -70903.118    98.758746    88.750668          160   -126.79397    -5416.149   -528.74546 
   13100    297.65465   -71254.762   -70900.216    98.515896    88.767969          160    205.33226   -5267.1451   -224.43351 
   13200    295.69916   -71249.992   -70897.775    98.458785    88.785269          160   -228.03931   -5601.4831   -174.47867 
   13300    298.21825   -71249.896   -70894.678    98.260869    88.802569          160    126.55829   -5741.8738   -339.30592 
   13400    297.75564   -71247.321   -70892.655    98.343222     88.81987          160    68.305936   -5954.4762   -226.18012 
   13500    293.12078    -71239.17   -70890.024    98.405188     88.83717          160   -57.541962   -5844.8343   -103.55708 
   13600     301.9262   -71246.739   -70887.105    98.492784     88.85447          160    51.943693   -5879.3851   -430.33075 
   13700    300.02859   -71243.608   -70886.234    98.586974    88.871771          160     -22.4431   -6135.7404   -842.74677 
   13800    301.06655   -71244.934   -70886.324    98.572279    88.889071          160   -32.592889   -6124.5716    -717.7886 
   13900     301.3753    -71245.66   -70886.682    98.619496    88.906371          160    165.86655   -6275.0818   -338.40441 
   14000    300.53133   -71246.271   -70888.299     98.77079    88.923671          160    7.6092631   -5971.0174   -178.53472 
   14100    302.32938   -71249.218   -70889.104    98.948548    88.940972          160   -24.594743   -6033.2722   -172.93268 
   14200    306.20134   -71255.147   -70890.421    99.063624    88.958272          160     192.2254   -5985.2899    15.876532 
   14300    299.44436   -71248.408    -70891.73    99.216142    88.975572          160   -39.099402   -5886.9762    34.061614 
   14400    301.72051   -71251.054   -70891.665     99.36917    88.992873          160   -26.804263   -5827.7647    176.29687 
   14500    299.32511   -71247.819   -70891.284    99.490195    89.010173          160    24.930699   -5835.2919    255.86572 
   14600    299.40791   -71247.653   -70891.018    99.552153    89.027473          160    208.94816   -5645.6886    231.84874 
   14700    298.41085   -71246.279   -70890.832    99.778802    89.044774          160   -189.39202   -5897.0754    144.37453 
   14800    295.66889    -71241.98   -70889.799    99.824045    89.062074          160    124.83979   -5641.3724    208.40867 
   14900    299.51038   -71245.058   -70888.302    99.934723    89.079374          160   -84.947145    -5846.175    367.31274 
   15000    301.97741   -71245.506   -70885.811    99.917042    89.096675          160    70.951835   -5798.9057    389.28796 
   15100    301.31301   -71242.749   -70883.846    99.894803    89.113975          160   0.45871217   -6040.7875     287.4713 
   15200    299.21899   -71237.978   -70881.569    99.834416    89.131275          160   -94.873029   -6018.1983    79.230506 
   15300    295.67866   -71232.097   -70879.905    99.759875    89.148576          160    73.846542   -6177.4289   -34.394314 
   15400    296.92056   -71230.777   -70877.105     99.81364    89.165876          160   -60.371285    -6196.065   -45.504249 
   15500    300.12111   -71231.715   -70874.231    99.803553    89.183176          160    -36.06267   -6354.0513   -114.59681 
   15600    296.19168   -71224.844   -70872.041    99.764056    89.200477          160     24.38234   -6187.9792   -11.344914 
   15700    301.75956   -71228.566   -70869.131     99.82216    89.217777          160   -81.463324   -6267.0744    226.56194 
   15800    302.61464    -71227.67   -70867.215    99.803656    89.235077          160   -32.683783   -6263.1173    494.11187 
   15900    297.00309   -71218.879   -70865.109    99.809594    89.252378          160   -4.5984628   -6403.0341    244.75425 
   16000    301.71794   -71222.529   -70863.143    99.839422    89.269678          160    34.564871     -6326.71   -332.14032 
   16100    302.89496   -71223.346   -70862.558     99.80865    89.286978          160    34.278032   -6334.2774    61.921666 
   16200    300.66073   -71220.952   -70862.825    99.844496    89.304279          160   -123.66349   -6444.0687    559.94117 
   16300    300.46301   -71220.431    -70862.54    99.774584    89.321579          160   -84.398504   -6493.3045    472.51467 
   16400    295.82077    -71215.16   -70862.798    99.745064    89.338879          160    29.901199   -6981.7939    115.61851 
   16500    301.50877   -71221.439   -70862.302    99.688542     89.35618          160    72.734451   -6829.4152   -20.264618 
   16600    298.24641    -71218.03   -70862.779    99.759536     89.37348          160   -16.677688   -6811.7912   -53.966283 
   16700    301.31212   -71222.339   -70863.436    99.717966     89.39078          160      31.2828   -6820.3554   -93.300324 
   16800    304.69204    -71227.22   -70864.291    99.637117    89.408081          160   -111.75495   -7028.6828   -15.500491 
   16900    298.22236   -71219.942    -70864.72     99.45028    89.425381          160    147.52354   -7111.4658    64.975014 
   17000    298.64468   -71220.437   -70864.711    99.414729    89.442681          160   -86.061898   -7043.4774   -67.983518 
   17100    299.48818   -71220.635   -70863.905    99.369115    89.459982          160    7.2299491   -7038.6934   -183.50669 
   17200    296.66763   -71215.727   -70862.357    99.248531    89.477282          160    83.354274   -6781.0215    56.919714 
   17300    302.97276   -71220.916   -70860.035    99.169817    89.494582          160      -232.98   -6824.8239    233.67243 
   17400     299.3893   -71214.339   -70857.727    98.928314    89.511883          160    20.288755   -6984.8581    414.29585 
   17500    298.96917   -71211.719   -70855.607    98.763925    89.529183          160    91.589501   -7273.0386     315.8352 
   17600    298.05176    -71207.63   -70852.611    98.734892    89.546483          160   -5.3771856   -7077.1484   -101.26436 
   17700    295.46577   -71201.877   -70849.939    98.715414    89.563784          160    52.741941   -7266.4582   -273.54118 
   17800    299.64005   -71203.756   -70846.845    98.718377    89.581084          160   -116.32164   -7525.9272   -454.74607 
   17900    300.83491   -71202.112   -70843.778    98.607407    89.598384          160   -49.805941   -7571.2422   -454.44283 
   18000    299.00955   -71198.425   -70842.265    98.495796    89.615684          160    84.794156   -7752.5012   -159.79953 
   18100    298.52181   -71195.997   -70840.418    98.479614    89.632985          160   -56.633958   -7869.1431   -85.716956 
   18200    299.00651   -71194.012   -70837.856    98.419351    89.650285          160    7.3578851    -7711.372   -163.75629 
   18300    301.89157   -71195.021   -70835.428    98.436241    89.667585          160    79.939069    -7960.673   -504.16226 
   18400    298.76208   -71190.035    -70834.17    98.400296    89.684886          160   -69.826139   -7858.0512   -621.25524 
   18500    305.63372   -71196.344   -70832.294    98.424308    89.702186          160    63.203222   -7950.5902   -317.47303 
   18600    304.29201   -71195.409   -70832.957    98.502628    89.719486          160    49.051257   -7959.9166   -25.524612 
   18700    300.50603   -71190.995   -70833.052    98.627793    89.736787          160   -44.798607   -8000.7643    160.41602 
   18800    301.72571    -71191.41   -70832.015    98.817385    89.754087          160   -46.646919   -8001.1603   -134.36771 
   18900    303.57301   -71192.767   -70831.171    98.937826    89.771387          160     74.35993   -7890.0351   -270.79326 
   19000    305.92735   -71196.205   -70831.806    99.077331    89.788688          160   -124.63628   -7808.4419   -101.58657 
   19100    302.31614   -71193.431   -70833.333    99.109299    89.805988          160    47.861259   -7971.3555   -140.89302 
   19200    302.78595   -71194.622   -70833.964    99.153386    89.823288          160    99.951562   -8018.4021    -57.15728 
   19300    302.93961   -71195.237   -70834.396    99.283124    89.840589          160   -189.36852   -7950.1424   -62.790906 
   19400    300.57846   -71191.999   -70833.971    99.340159    89.857889          160    146.65118   -7740.9753   -35.862637 
   19500    303.13741   -71194.405   -70833.329    99.522664    89.875189          160    -78.89123   -8055.3324    64.851661 
   19600    296.35734   -71184.684   -70831.683    99.571705     89.89249          160   -57.052326   -7929.5362     160.0563 
   19700    301.34775   -71187.442   -70828.497     99.69843     89.90979          160    45.071615   -8200.8539   -9.8216044 
   19800    297.29683   -71179.811   -70825.691     99.75771     89.92709          160   -2.3974289   -7844.6159   -48.804435 
   19900    296.64268   -71176.544   -70823.203    99.844822    89.944391          160   -171.61712   -7855.1839    194.28919 
   20000    301.10746   -71179.709    -70821.05    99.788341    89.961691          160    173.52433   -7735.4525    412.39358 
   20100    297.94468   -71174.111    -70819.22     99.89045    89.978991          160   -72.194838   -7963.5969    231.98258 
   20200    293.93714    -71166.94   -70816.822    99.956202    89.996292          160   -30.586886   -7995.5887    102.95809 
   20300     295.7346    -71164.68   -70812.421    99.955058    90.013592          160    85.653335    -7928.425    372.68948 
   20400    303.16125   -71169.861   -70808.756    99.956715    90.030892          160   -70.685571   -7764.2254     704.5797 
   20500     301.0769   -71165.866   -70807.244     99.86927    90.048193          160     -7.31191   -8004.9188    458.09559 
   20600    299.09336   -71161.963   -70805.703    99.729249    90.065493          160   0.49022476   -8267.1929       297.85 
   20700    298.24698   -71158.776   -70803.525    99.697862    90.082793          160  -0.45591681   -8544.1577    235.03853 
   20800    302.89761   -71161.842   -70801.051    99.777006    90.100094          160   -54.388331   -8469.1521   -4.7406515 
   20900    300.48906    -71158.15   -70800.228    99.777348    90.117394          160    -40.76064   -8448.6942   -168.43422 
   21000    300.63505   -71157.298   -70799.202    99.720627    90.134694          160    19.733879   -8529.9118   -166.67272 
   21100    300.11654   -71155.417   -70797.939    99.712892    90.151995          160   -23.948427   -8841.5555    22.255925 
   21200    301.21001   -71156.306   -70797.525    99.637608    90.169295          160     74.99077   -8664.5972    182.58907 
   21300    302.41705   -71158.476   -70798.257     99.64899    90.186595          160    6.7416414   -8620.7297    188.79123 
   21400    300.20135   -71157.153   -70799.574     99.60858    90.203896          160    41.183284   -8497.0164    22.007441 
   21500    298.31162    -71154.53   -70799.201    99.621351    90.221196          160   -130.19907   -8633.5902   -82.280682 
   21600    299.15573   -71154.635   -70798.301    99.456194    90.238496          160    54.646121   -8686.1676    261.06021 
   21700    298.32835   -71152.652   -70797.303     99.41718    90.255797          160   -186.67023   -8889.6475    270.24564 
   21800    302.56022   -71157.328   -70796.939    99.237608    90.273097          160    39.485969   -8913.4454    121.75929 
   21900    300.62914   -71153.845   -70795.756    99.222376    90.290397          160    21.098136   -9095.1047   -257.06901 
   22000    299.08518   -71149.979   -70793.729    99.209861    90.307697          160   -170.05173   -8943.9432   -333.93467 
   22100    301.56122   -71151.533   -70792.334    99.105477    90.324998          160    57.227725   -9176.0691   -159.36922 
   22200    300.09447   -71149.378   -70791.926     98.94012    90.342298          160   -96.356225   -9309.7064   -112.81948 
   22300    299.81378   -71146.456   -70789.338    98.694003    90.359598          160    24.208046   -9410.7892   -235.61831 
   22400    300.32944   -71143.224   -70785.492    98.609068    90.376899          160    15.353881   -9305.6426   -209.75215 
   22500    302.64419   -71141.997   -70781.508    98.522791    90.394199          160    155.13402   -9260.4619    -4.506821 
   22600     298.1199   -71133.557   -70778.457    98.617836    90.411499          160   -148.36838   -9413.5376    112.91942 
   22700    299.53913   -71132.865   -70776.075    98.525007      90.4288          160    65.837416   -9522.2913    49.404934 
   22800    299.11819    -71129.62   -70773.331      98.5317      90.4461          160   -66.415616   -9869.1748   -195.14055 
   22900    298.45553   -71125.321   -70769.821    98.454448      90.4634          160   -75.514946   -9645.0927   -354.13891 
   23000    296.96249   -71120.184   -70766.462    98.437395    90.480701          160    60.338053    -9586.958   -161.68025 
   23100    299.32376   -71120.163   -70763.628    98.399905    90.498001          160     1.653426   -9527.3331   -114.42344 
   23200    300.34748   -71120.036   -70762.283    98.423021    90.515301          160    24.072638   -9655.1217   -164.67263 
   23300     304.2256   -71124.014   -70761.641     98.42814    90.532602          160    113.27001   -9759.5176   -50.874407 
   23400      302.721   -71120.812   -70760.232    98.441582    90.549902          160    16.000316   -9625.2918   -28.464008 
   23500    301.44514   -71119.297   -70760.236    98.483089    90.567202          160    -92.46368    -9812.132   -80.319844 
   23600    302.00026   -71120.189   -70760.467    98.500834    90.584503          160     94.51653   -9801.1939   -171.46255 
   23700    300.40418   -71118.116   -70760.295    98.607225    90.601803          160    4.5749956   -9789.2788   -213.01087 
   23800    302.96744   -71120.176   -70759.302    98.766866    90.619103          160   -42.489939   -9920.9732   -243.35162 
   23900    301.54048   -71117.604    -70758.43    98.904345    90.636404          160     25.79654   -10196.871    -451.6789 
   24000    301.84486   -71116.943   -70757.406    98.982943    90.653704          160    7.5253413   -10112.847   -315.42533 
   24100    299.48379   -71114.245    -70757.52    99.102706    90.671004          160   -83.077176   -10074.712    -377.2405 
   24200    303.72496   -71118.683   -70756.906    99.174205    90.688305          160    37.301348     -9885.91   -194.07711 
   24300    299.25651   -71112.567   -70756.113    99.316876    90.705605          160    7.2461419   -10096.057    6.1709476 
   24400    302.22333   -71115.404   -70755.416    99.419639    90.722905          160   -34.873056   -9721.4124     162.5658 
   24500    298.50303   -71110.205   -70754.648    99.537686    90.740206          160   -10.559273   -10041.003    272.16014 
   24600    302.90859   -71113.264    -70752.46    99.608638    90.757506          160   -66.181737   -9835.5464    164.69336 
   24700    297.20583   -71103.934   -70749.922    99.664854    90.774806          160    7.6352216   -9825.5408     166.9548 
   24800    300.46921    -71104.95   -70747.052     99.70214    90.792107          160    10.798308     -9721.99    304.24133 
   24900    294.38971   -71094.535   -70743.878    99.823792    90.809407          160   -90.872643   -10001.716    224.48585 
   25000    298.90089   -71095.699   -70739.669    99.792579    90.826707          160    215.50331   -10052.773     321.8714 
   25100    295.35301   -71088.147   -70736.342    99.877267    90.844008          160   -180.85344   -10202.685    419.63716 
   25200    295.60557   -71085.647   -70733.542    99.774971    90.861308          160    45.150433   -9912.7049    175.35501 
   25300    298.79476   -71085.975   -70730.071    99.764653    90.878608          160    32.470387   -10048.841   -54.197558 
   25400    295.84977     -71079.6   -70727.204    99.678683    90.895909          160   -74.452238   -10149.684    164.54684 
   25500    295.30799   -71076.626   -70724.875    99.636258    90.913209          160    36.308214    -10286.07    291.10106 
   25600    299.53074   -71078.804   -70722.023    99.694279    90.930509          160    88.036219   -10186.963    260.09267 
   25700    298.05377    -71075.65   -70720.628    99.729196     90.94781          160   -78.441678   -10164.328    350.16515 
   25800     301.9566   -71078.965   -70719.295    99.751232     90.96511          160    -7.067482   -10363.068    180.83628 
   25900    301.49508   -71077.783   -70718.662    99.652498     90.98241          160    56.005603   -10312.993   -81.567178 
   26000    299.86967   -71074.218   -70717.034    99.620971     90.99971          160   -38.587603   -10458.059   -108.40057 
   26100    302.03207   -71074.667   -70714.907    99.587102    91.017011          160    2.8287944   -10575.168    195.10619 
   26200    302.88397   -71074.646   -70713.871      99.6129    91.034311          160    42.434508   -10452.801    288.80348 
   26300    302.26815   -71074.327   -70714.286    99.660749    91.051611          160   -51.265053   -10452.226    196.88512 
   26400    304.44057   -71077.879    -70715.25    99.556515    91.068912          160   -60.563278   -10572.257    131.59702 
   26500    301.75654   -71074.611   -70715.179    99.437414    91.086212          160    57.349699   -10643.004    -11.87362 
   26600    302.53853   -71073.836   -70713.473    99.384126    91.103512          160   -24.063085   -10924.329    67.576318 
   26700    300.89755   -71071.022   -70712.613      99.2693    91.120813          160    55.178616   -10861.825    105.87694 
   26800    300.99154   -71070.367   -70711.846    99.267099    91.138113          160   -57.162883   -11103.464   -86.651308 
   26900    299.16944   -71066.543   -70710.193    99.165474    91.155413          160    27.859044    -11188.44   -298.36976 
   27000    298.11914   -71062.205   -70707.106    99.119701    91.172714          160   -124.48494   -11250.279    -337.6728 
   27100    296.71691    -71057.66   -70704.231    98.924243    91.190014          160   -21.381089    -11312.75    49.009068 
   27200    300.66153   -71060.155   -70702.027    98.760423    91.207314          160    110.95278   -11343.826    63.466491 
   27300    299.87214   -71056.976   -70699.789    98.695943    91.224615          160   -145.03136   -11361.913   -204.96352 
   27400     301.0847   -71054.625   -70695.994    98.521062    91.241915          160    116.85327   -11359.624    -75.46977 
   27500    298.59326    -71047.14   -70691.476    98.443696    91.259215          160   -72.661238   -11339.642   -36.568116 
   27600    297.61474   -71042.831   -70688.332    98.307287    91.276516          160   -78.975264   -11383.458    8.5399534 
   27700    303.91133    -71047.72   -70685.722    98.194645    91.293816          160    194.76664   -11549.012   -127.86815 
   27800    298.48032   -71039.202   -70683.672    98.235627    91.311116          160   -166.88952   -11476.913    -323.1642 
   27900    297.45754   -71034.853   -70680.542    98.220404    91.328417          160    4.5108864   -11596.956   -330.71806 
   28000    300.08115   -71033.734   -70676.297    98.228838    91.345717          160    123.14078   -11620.425   -374.98227 
   28100     303.0263   -71033.938   -70672.993    98.289847    91.363017          160   -122.59085    -11693.31   -470.42078 
   28200     298.8412   -71027.292   -70671.333     98.25484    91.380318          160   -49.109769   -11786.876   -169.53418 
   28300    302.79056    -71030.54   -70669.876    98.246684    91.397618          160      189.227   -11823.758   -84.004974 
   28400     301.0438   -71027.725   -70669.142    98.354262    91.414918          160   -133.76655   -11533.878   -141.04273 
   28500    298.03519   -71023.664   -70668.665    98.424673    91.432219          160    166.31077   -11692.498   -101.56142 
   28600    306.39592   -71031.985   -70667.027    98.626329    91.449519          160   -135.67419   -11776.645   -69.992408 
   28700    303.19469   -71028.489   -70667.344    98.726756    91.466819          160    43.752916   -11850.579   -174.01832 
   28800    302.34444    -71026.92   -70666.788    98.838325     91.48412          160    96.575221   -11821.746    68.992599 
   28900    303.31062   -71027.857   -70666.574    99.042247     91.50142          160   -114.61793   -11874.047    141.89915 
   29000    303.76841   -71027.711   -70665.882      99.0901     91.51872          160    43.004403   -11830.798   -86.078867 
   29100    300.86231   -71023.336    -70664.97    99.180361    91.536021          160   -41.012773   -12049.604   -179.41932 
   29200     302.5337   -71023.792   -70663.434    99.188961    91.553321          160    10.733123   -11938.756   -6.1157135 
   29300    303.16473   -71022.614   -70661.505    99.328578    91.570621          160   -19.790806   -11872.359    84.837321 
   29400    303.02181   -71020.214   -70659.275    99.403131    91.587922          160    42.274981   -11851.976    217.08456 
   29500    299.56324   -71014.805   -70657.986    99.409293    91.605222          160    112.57963   -12014.577     342.6029 
   29600    298.83014   -71011.489   -70655.543    99.528076    91.622522          160    -117.9179   -12026.325    11.609133 
   29700    298.98838   -71008.015    -70651.88    99.526872    91.639823          160    78.774451   -11976.095    -167.6322 
   29800    299.39184   -71005.931   -70649.316    99.520966    91.657123          160    36.703545   -11985.106    18.050249 
   29900    298.17451   -71001.117   -70645.952    99.555253    91.674423          160   -13.775256   -12050.733    29.665456 
   30000     296.3832   -70995.018   -70641.986    99.580538    91.691724          160    124.57914   -12019.887   -94.498813 
   30100    301.40701   -70996.972   -70637.956    99.655884    91.709024          160   -76.221935   -12126.774    70.398876 
   30200    296.15487   -70987.575   -70634.815    99.680634    91.726324          160   -30.314231   -12001.826    322.45749 
   30300    298.35931   -70986.515    -70631.13    99.670037    91.743624          160    91.744346   -11829.628    400.20796 
   30400    303.00974   -70989.284   -70628.359    99.630568    91.760925          160    -77.30937   -11982.842    304.83257 
   30500    300.67489   -70984.532   -70626.389    99.617849    91.778225          160   -95.325562   -12225.804    186.92393 
   30600    298.57605   -70979.267   -70623.623    99.583262    91.795525          160     126.6634   -12168.265    186.47346 
   30700     301.8213   -70979.835   -70620.326    99.711953    91.812826          160   -64.441648   -12136.667    209.73884 
   30800    302.24559   -70979.322   -70619.307    99.673608    91.830126          160   -33.271044   -12090.903    210.19139 
   30900    301.55863   -70977.469   -70618.272    99.671127    91.847426          160  0.070231419   -12381.214    175.73686 
   31000    300.50003   -70974.766   -70616.831    99.606911    91.864727          160   -55.570867   -12398.237    210.97396 
   31100    301.08626   -70973.665   -70615.031    99.594889    91.882027          160     32.78036   -12546.563    100.25045 
   31200    303.03389   -70974.785   -70613.832    99.601339    91.899327          160    10.191329   -12517.083    73.222723 
   31300    298.92702   -70968.968   -70612.906    99.554795    91.916628          160    52.617367   -12514.908    128.12482 
   31400    303.26035   -70973.864    -70612.64     99.52655    91.933928          160   -112.07426   -12524.072    104.34854 
   31500     299.7173   -70969.325   -70612.322    99.387049    91.951228          160    171.23516   -12831.425    124.50834 
   31600    299.29733   -70967.193    -70610.69    99.317328    91.968529          160   -17.225885   -12753.759    264.03206 
   31700    298.30048   -70964.143   -70608.827    99.295273    91.985829          160   -167.87368   -12833.712    194.31508 
   31800    297.83265   -70962.484   -70607.726     99.16629    92.003129          160     136.7731   -12813.654    -165.4063 
   31900    300.47942   -70963.972   -70606.062    99.082372     92.02043          160   -115.26137   -13045.599   -299.19298 
   32000    300.93777   -70961.638   -70603.182    98.843981     92.03773          160    53.596277   -12995.961   -91.667906 
   32100    299.77284   -70957.972   -70600.903    98.677399     92.05503          160    65.951755   -13253.377   -7.3244765 
   32200    299.87756   -70953.985   -70596.791    98.574513    92.072331          160   -22.926818    -13238.29   -218.63412 
   32300     299.1824    -70949.43   -70593.065    98.544807    92.089631          160     -24.0331   -13387.152    -477.8896 
   32400    298.95398   -70945.182   -70589.088    98.387742    92.106931          160    65.216222   -13256.116   -360.26559 
   32500    296.93577   -70939.212   -70585.523    98.319839    92.124232          160   -97.400496   -13435.885    -132.9396 
   32600    298.48847   -70938.342   -70582.803     98.13621    92.141532          160    73.807433   -13512.217   -63.651087 
   32700    300.50634   -70937.311   -70579.368    98.120514    92.158832          160    74.008236   -13625.717   -239.99175 
   32800    301.58983    -70935.06   -70575.826    98.153277    92.176133          160   -2.5417052    -13600.62   -254.46523 
   32900    300.43128   -70930.228   -70572.374    98.325142    92.193433          160   -120.78583   -13562.485   -407.89957 
   33000    302.41356   -70929.473   -70569.258    98.357365    92.210733          160   -17.458433   -13606.682   -420.00689 
   33100    299.55601   -70924.166   -70567.355    98.239336    92.228034          160    96.269733   -13693.867   -181.89777 
   33200    299.30903   -70921.538   -70565.022    98.276056    92.245334          160   -117.12289   -13905.801   -20.757412 
   33300    304.72546   -70925.577   -70562.608     98.22759    92.262634          160    201.32803   -13454.965    156.15816 
   33400    298.17994   -70915.667   -70560.495    98.481147    92.279935          160   -83.574352   -13589.903    194.89433 
   33500    301.51788    -70917.91   -70558.763    98.534881    92.297235          160     3.175866    -13470.97    15.940112 
   33600    302.27026   -70916.959   -70556.915    98.576922    92.314535          160    63.948824   -13592.579   -81.526811 
   33700    300.94662   -70914.329   -70555.861    98.640986    92.331836          160   -70.580995    -13760.93   -12.487993 
   33800    299.41507   -70912.101   -70555.458    98.671974    92.349136          160    83.280095     -13809.7    99.851889 
   33900    298.88201   -70911.232   -70555.224    98.796348    92.366436          160    6.3474764   -13805.489   -53.150551 
   34000    302.18433   -70914.521   -70554.579    98.919142    92.383737          160   -32.210726   -13851.692   -172.65738 
   34100    300.83595   -70911.469   -70553.133    99.000902    92.401037          160    39.165408   -13850.453   -223.85777 
   34200    297.20186   -70905.271   -70551.264    98.974257    92.418337          160    75.523481   -13872.289   -68.804442 
   34300    301.95643    -70908.19    -70548.52    99.056487    92.435637          160   -124.82729   -14052.503    1.3921662 
   34400    297.70604   -70901.387   -70546.779     99.02453    92.452938          160    229.00762   -13985.327   -97.479705 
   34500    296.86651   -70898.132   -70544.525     99.16659    92.470238          160   -150.69901   -13889.102   -183.63106 
   34600    299.26618   -70897.527   -70541.062    99.279575    92.487538          160     103.4695     -13929.5   -124.33101 
   34700    298.37625    -70893.59   -70538.185    99.385011    92.504839          160    19.475931   -13849.987    101.47125 
   34800    299.05688   -70891.667   -70535.451    99.501024    92.522139          160   -80.236081   -14047.578    132.59099 
   34900     300.5915    -70889.89   -70531.845     99.43613    92.539439          160    51.787955   -13977.538    99.466412 
   35000    301.72907   -70887.633   -70528.234    99.520719     92.55674          160    16.414731   -14022.076     19.22579 
   35100    298.43033   -70880.511   -70525.041    99.560057     92.57404          160   -33.477428   -13812.323    84.149923 
   35200    296.11534    -70874.64   -70521.927    99.595716     92.59134          160    -1.492623   -13859.676     251.9238 
   35300    298.97583   -70873.909    -70517.79    99.652173    92.608641          160     15.90907   -14036.084    290.29704 
   35400    299.04465   -70870.175   -70513.973    99.635779    92.625941          160   -44.089183   -14100.528    407.35575 
   35500    300.38114   -70869.112   -70511.318    99.643293    92.643241          160   -27.254926    -14157.01    468.33702 
   35600    299.30515   -70864.947   -70508.435    99.599203    92.660542          160     29.06625   -13949.343    164.26123 
   35700     300.0173   -70862.915   -70505.555    99.612166    92.677842          160   -24.097015   -14019.024   -73.121224 
   35800    300.25707   -70860.582   -70502.936     99.53276    92.695142          160    30.952341   -14360.491    81.911883 
   35900    298.78684   -70855.948   -70500.054    99.492053    92.712443          160   -5.4930515   -14403.203    307.73033 
   36000     300.2759   -70855.712   -70498.044    99.512969    92.729743          160    15.869361   -14332.429    307.07757 
   36100    299.65856   -70853.744   -70496.811    99.549316    92.747043          160   -75.922602   -14305.368     116.4939 
   36200     300.9398   -70853.871   -70495.412    99.479571    92.764344          160   -2.6837436    -14283.95    17.462674 
   36300     302.5282   -70854.412   -70494.061    99.385895    92.781644          160     31.95361   -14361.828   -40.847891 
   36400    298.89918    -70847.82   -70491.791    99.338357    92.798944          160   -103.88427   -14583.864      237.266 
   36500    299.83529   -70847.163   -70490.019    99.228764    92.816245          160    39.222182   -14462.414    391.88495 
   36600    300.95126   -70847.804   -70489.331    99.238933    92.833545          160   -65.625077   -14502.527    272.54089 
   36700    303.81566   -70850.002   -70488.117    99.222482    92.850845          160    26.794465   -14548.408   -126.85174 
   36800    299.13587    -70842.52    -70486.21     99.15964    92.868146          160   -32.655506   -14677.905   -285.93966 
   36900    300.19436   -70841.365   -70483.793    99.022095    92.885446          160   -11.183052   -14812.493    32.577939 
   37000    301.51438   -70840.302   -70481.159    98.927435    92.902746          160    55.309364   -15061.185    163.10351 
   37100    301.53983   -70837.667   -70478.493    98.850395    92.920047          160   -57.070717   -14993.998   -152.50575 
   37200    302.07967   -70835.261   -70475.445    98.808964    92.937347          160   -25.039411   -15115.814   -324.44042 
   37300    294.07931   -70823.334   -70473.046    98.675585    92.954647          160    46.808372   -15139.964   -164.50074 
   37400    300.18816    -70827.01   -70469.446    98.604618    92.971948          160   -14.055424   -15206.182   -165.41808 
   37500    297.66337   -70820.311   -70465.755    98.515583    92.989248          160   -24.782239   -15386.069   -129.69838 
   37600    303.07756   -70821.874   -70460.869     98.36075    93.006548          160    112.89988   -15518.067    2.4267473 
   37700      300.957   -70815.637   -70457.157    98.359519    93.023849          160   -110.61211   -15451.402   -244.99074 
   37800    297.75072   -70807.664   -70453.003    98.337189    93.041149          160    38.628265   -15520.643   -294.24991 
   37900    303.34306   -70810.304   -70448.982    98.305598    93.058449          160   -94.388368    -15375.09   -255.04702 
   38000     300.3021   -70804.195   -70446.495    98.146783     93.07575          160    74.425896   -15555.843   -11.197974 
   38100    302.17196   -70803.442   -70443.515    98.144897     93.09305          160    16.609922   -15671.731   -161.51569 
   38200    297.92405   -70795.632   -70440.765    98.144208     93.11035          160    8.2188967   -15639.158   -217.37746 
   38300    297.83213   -70792.547    -70437.79     98.14333     93.12765          160   -44.314062   -15437.934   -77.932439 
   38400    303.80554   -70797.143   -70435.271     98.14624    93.144951          160   -11.049987   -15530.501    5.7535689 
   38500    302.17944   -70792.965   -70433.029    98.100329    93.162251          160     90.89634   -15358.851   -125.66307 
   38600    296.30452   -70784.229   -70431.291    98.216344    93.179551          160   -108.00859   -15748.347   -77.425877 
   38700    300.74059   -70786.939   -70428.717    98.205287    93.196852          160    72.584612   -15679.708    82.810497 
   38800    302.28178    -70785.69   -70425.633    98.374595    93.214152          160    72.234436   -15693.614   -259.66994 
   38900    302.34804   -70784.043   -70423.907    98.505568    93.231452          160   -67.894042   -15517.741   -468.60966 
   39000       301.74   -70782.165   -70422.753    98.579749    93.248753          160    54.732535   -15656.961   -192.06344 
   39100    300.41136   -70779.776   -70421.946    98.701024    93.266053          160   -49.973137   -15718.902   -6.0392902 
   39200    300.36762   -70778.082   -70420.304    98.784529    93.283353          160   -7.4534743   -15868.297      139.103 
   39300    303.03057   -70779.796   -70418.846    98.910888    93.300654          160    38.150675   -15855.908    94.237489 
   39400    297.04502   -70771.215   -70417.395    99.028351    93.317954          160   -86.727271   -15644.783    -128.7576 
   39500    300.14854   -70772.567    -70415.05    99.084082    93.335254          160    49.242729   -15649.493   -83.273913 
   39600    300.65243   -70770.811   -70412.695    99.153504    93.352555          160    14.725708   -15843.553    214.21423 
   39700    297.04427   -70764.273   -70410.454     99.25775    93.369855          160   -110.51199   -15954.338     206.8662 
   39800    295.62379   -70758.804   -70406.677    99.261582    93.387155          160    272.26313   -16061.331    53.061136 
   39900     300.9686   -70761.056   -70402.563     99.37843    93.404456          160   -155.73393   -15836.178   -35.937611 
   40000    299.29654   -70755.204   -70398.703    99.438894    93.421756          160    95.208248   -15883.729   -79.832713 
   40100    298.41653   -70750.309   -70394.855    99.380706    93.439056          160    60.957076   -15716.455    41.842313 
   40200    297.06697   -70745.074   -70391.228    99.433079    93.456357          160   -28.932715   -16125.613    169.88129 
   40300    297.22264   -70741.631   -70387.599    99.425658    93.473657          160   -13.309375   -16035.186    219.61457 
   40400    299.87228   -70740.481   -70383.293     99.51068    93.490957          160    27.249576   -15993.331    154.96555 
   40500    299.40517   -70736.472   -70379.841    99.502771    93.508258          160   -17.129011   -15723.383    122.91536 
   40600    299.68164   -70733.795   -70376.835    99.537639    93.525558          160   -92.892723    -15879.88     75.31785 
   40700    297.39948   -70727.964   -70373.722    99.427755    93.542858          160    58.431277    -15880.42    155.86791 
   40800    299.09399   -70727.008   -70370.748    99.385823    93.560159          160    114.76016   -16140.806    235.94091 
   40900    297.90246   -70721.916   -70367.075    99.449018    93.577459          160    -68.04546   -16121.254    119.12981 
   41000    301.41076   -70722.949   -70363.929    99.423768    93.594759          160   -77.167924   -15972.276    155.74919 
   41100     299.0368    -70717.34   -70361.148    99.420107     93.61206          160   -38.179016   -15978.104    32.037002 
   41200    300.89338   -70716.551   -70358.147    99.372924     93.62936          160    85.825445   -16098.101   -13.665741 
   41300    303.62033   -70717.232    -70355.58    99.317335     93.64666          160   -15.483192   -16233.777    230.06327 
   41400    304.36859   -70716.326   -70353.782    99.322885    93.663961          160    16.479035   -16363.017    530.12197 
   41500    301.77353   -70711.947   -70352.495    99.431429    93.681261          160    -169.9032   -16263.795    202.26785 
   41600    300.35068   -70708.993   -70351.236     99.36434    93.698561          160     52.67487   -16299.319   -60.428601 
   41700     298.8158   -70704.878   -70348.949    99.301913    93.715862          160   -113.04122   -16397.746   -25.097759 
   41800    302.69881   -70707.445   -70346.891    99.220333    93.733162          160   0.80357774   -16525.458    140.68231 
   41900     300.9185   -70703.864    -70345.43    99.150868    93.750462          160    54.041242   -16702.318    282.12674 
   42000    299.07764   -70699.828   -70343.587    99.187246    93.767763          160   -87.711435   -16731.178    65.787572 
   42100    297.79036   -70695.866   -70341.158    99.148933    93.785063          160    11.716856   -16688.965   -21.738064 
   42200    297.98753   -70692.609   -70337.667    99.004526    93.802363          160    34.574162   -16685.587   -30.347967 
   42300    301.62741   -70693.942   -70334.664    98.852811    93.819664          160   -76.186626   -16881.226   -46.228427 
   42400    301.42955   -70690.194   -70331.151    98.646682    93.836964          160    5.5401761   -17159.879    58.457481 
   42500    299.42115   -70685.068   -70328.418    98.567202    93.854264          160    9.8354542   -17145.953    65.237884 
   42600    302.40048   -70684.711   -70324.512    98.536113    93.871564          160   -8.3643231   -17088.466    -207.0875 
   42700    298.87283   -70676.304   -70320.307    98.468659    93.888865          160    21.509673   -16971.048   -495.49284 
   42800    304.44739   -70678.566   -70315.929    98.332416    93.906165          160    12.094942   -17273.337   -276.50319 
   42900    296.90174   -70665.814   -70312.165    98.196781    93.923465          160   -71.954239   -17389.127   -114.19393 
   43000    296.67552   -70661.313   -70307.933    98.046926    93.940766          160    52.325059   -17403.838   -201.26807 
   43100    300.68247   -70662.107   -70303.954    98.016735    93.958066          160    63.808111   -17372.278   -286.33263 
   43200    299.12999   -70657.209   -70300.905    98.080214    93.975366          160   -148.20872   -17373.013   -449.18986 
   43300    298.03631   -70652.019   -70297.019    97.996153    93.992667          160    109.51657   -17243.646   -359.98655 
   43400    298.64436   -70649.314   -70293.589    98.060854    94.009967          160   -89.359484   -17594.936   -176.98704 
   43500    301.98399   -70650.009   -70290.306    97.966147    94.027267          160    82.793624   -17530.187    137.81335 
   43600    301.95086   -70647.602   -70287.938    98.072861    94.044568          160    -2.015016   -17577.707    99.025618 
   43700     298.2439   -70640.472   -70285.224    98.161388    94.061868          160    14.207663   -17361.913   -115.21572 
   43800    297.64048   -70636.735   -70282.205    98.305628    94.079168          160  -0.12274271   -17437.241   -262.53412 
   43900    299.73069   -70635.966   -70278.947    98.388686    94.096469          160    -153.6096   -17440.847   -119.42226 
   44000    302.24456   -70637.217   -70277.204    98.360718    94.113769          160    114.28749   -17534.662    201.01264 
   44100    299.64741   -70631.795   -70274.876     98.48092    94.131069          160   -57.933815   -17612.235    223.09928 
   44200    303.77157   -70634.342    -70272.51    98.532031     94.14837          160    90.607935   -17567.852    187.17783 
   44300    300.68897   -70629.391   -70271.231    98.726806     94.16567          160   -45.400959   -17481.747   -30.670955 
   44400    300.43302   -70627.457   -70269.602    98.792582     94.18297          160    -59.83411   -17484.486     -6.67599 
   44500    300.85614   -70626.432   -70268.073    98.807113    94.200271          160    64.267592   -17698.752    11.701598 
   44600    297.13048   -70619.543   -70265.621    98.810353    94.217571          160    62.093321   -17760.442   -24.374928 
   44700     300.6656   -70621.202   -70263.069    98.900524    94.234871          160   -67.958554   -17883.146   -103.77905 
   44800    301.24567   -70618.742   -70259.918    98.955492    94.252172          160    72.700398   -17747.952   -238.12128 
   44900    297.23486    -70611.12   -70257.074    99.114101    94.269472          160   -61.670684   -17769.024   -380.98426 
   45000     299.1717   -70609.565   -70253.212    99.131458    94.286772          160    4.5796993   -17773.591   -200.76489 
   45100    301.25131    -70607.41    -70248.58    99.139377    94.304073          160    104.54844   -17923.771    29.524918 
   45200    299.14874   -70600.715   -70244.389    99.178493    94.321373          160   -21.841386   -17778.279    151.54644 
   45300     297.4319   -70595.981   -70241.701    99.262247    94.338673          160   0.74455997   -17701.196     21.45445 
   45400    298.98618   -70594.392    -70238.26    99.298663    94.355974          160    45.594534   -17639.957   -25.016524 
   45500    298.82333   -70590.139   -70234.201    99.385127    94.373274          160   -48.115451   -17721.986    29.926973 
   45600    299.50313   -70587.311   -70230.563    99.408087    94.390574          160    51.288924   -17822.525    226.53291 
   45700    295.84594   -70579.569   -70227.178     99.46687    94.407875          160    9.3902161   -17906.203    239.32206 
   45800    298.24554   -70578.378   -70223.128    99.481304    94.425175          160   -20.684705    -17802.15    177.60493 
   45900    299.26308    -70575.74   -70219.278    99.480907    94.442475          160   -17.773598   -17725.158    238.21464 
   46000    297.96013   -70571.012   -70216.102    99.437556    94.459776          160    72.670839   -17662.666    224.44723 
   46100    298.70917    -70568.08   -70212.278    99.476533    94.477076          160    -100.3253   -17859.082    212.29455 
   46200    299.19298   -70564.231   -70207.853    99.407835    94.494376          160    48.128219   -17937.187    355.14196 
   46300    294.42205   -70555.122   -70204.427    99.381304    94.511677          160    3.5990992   -18049.787    376.52463 
   46400    299.63312   -70557.799   -70200.896    99.392188    94.528977          160   -29.217768    -17957.12    116.76534 
   46500    300.55178   -70556.352   -70198.355     99.37545    94.546277          160   -6.5250735   -17995.522    1.9428146 
   46600    299.86039   -70552.533   -70195.359    99.351631    94.563577          160   -66.935976   -18103.471    66.669656 
   46700    302.24151   -70552.449   -70192.439    99.254236    94.580878          160    34.472185   -18250.822    184.79898 
   46800    300.78659   -70548.503   -70190.226    99.204522    94.598178          160    48.248068   -18348.619    108.73339 
   46900    302.14881   -70548.858   -70188.959    99.180183    94.615478          160    6.7158139   -18257.406   -23.345492 
   47000    302.24549   -70548.068   -70188.054    99.179932    94.632779          160   -65.775282   -18210.724    34.074998 
   47100    299.42662   -70542.253   -70185.597    99.152128    94.650079          160   -41.519758   -18171.267    78.268507 
   47200    298.54911   -70538.391    -70182.78    99.066239    94.667379          160    21.301824   -18439.521    103.94649 
   47300    299.41862   -70536.536   -70179.889    98.956605     94.68468          160   -5.3875561    -18500.91     202.2555 
   47400    300.47448     -70534.7   -70176.795    98.881733     94.70198          160    23.944915   -18589.165    119.85954 
   47500    298.90913   -70529.921   -70173.881    98.820729     94.71928          160    63.719283   -18612.299   -111.32691 
   47600    298.07484   -70525.698   -70170.652    98.791524    94.736581          160   -101.37389   -18645.807   -319.35792 
   47700    301.76788   -70526.076    -70166.63    98.719955    94.753881          160    51.483244   -18787.591   -333.89774 
   47800    302.06318   -70522.459   -70162.662    98.633466    94.771181          160    3.7543398   -19008.937   -155.54486 
   47900    299.76973    -70515.96   -70158.894    98.548848    94.788482          160   -28.586843   -19055.474    -37.40001 
   48000    300.28484   -70512.799    -70155.12    98.440536    94.805782          160    10.435394   -19093.806   -46.319469 
   48100    298.18787   -70506.474   -70151.293    98.349547    94.823082          160    104.35795   -19058.199   -292.33684 
   48200    302.10548   -70506.803   -70146.955    98.320131    94.840383          160   -159.69508    -19099.62   -297.54046 
   48300    299.29196   -70499.159   -70142.662    98.209541    94.857683          160    33.802349   -19149.169   -89.486097 
   48400    298.59439   -70494.556    -70138.89    98.155776    94.874983          160   -36.874181   -19267.761    101.70037 
   48500    299.10394   -70491.417   -70135.145    98.095094    94.892284          160   -64.178964   -19226.244   0.40216827 
   48600    298.05305   -70486.587   -70131.567    98.064017    94.909584          160    44.540726   -19223.389   -231.18821 
   48700    299.98873    -70484.63   -70127.304     98.02582    94.926884          160    -1.042469   -19182.797   -128.62655 
   48800    297.94077   -70478.771   -70123.884    98.020629    94.944185          160    -83.28801   -19253.883   -75.391915 
   48900    298.74193   -70476.062   -70120.221    97.937118    94.961485          160    59.225995   -19347.409    -195.7313 
   49000    302.15939   -70476.162    -70116.25    97.902055    94.978785          160     32.83168   -19367.377   -160.13786 
   49100    299.98019   -70469.836    -70112.52    97.943411    94.996086          160   -76.881316   -19418.486    62.127714 
   49200    297.96082   -70464.295   -70109.384    97.949998    95.013386          160    73.451081   -19090.548    84.624431 
   49300    302.34529   -70467.414   -70107.281     98.04374    95.030686          160    6.2855181   -19217.453   -22.198283 
   49400    304.37401   -70466.923   -70104.373    98.119397    95.047987          160   -46.590441     -19355.9   -42.354508 
   49500    299.86786   -70459.364   -70102.181    98.203408    95.065287          160    84.430454   -19541.791   -38.858429 
   49600    304.98831   -70463.308   -70100.027    98.398883    95.082587          160   -105.13118   -19507.628   -246.01136 
   49700     300.9079   -70456.321     -70097.9    98.509917    95.099888          160    85.392967   -19488.256   -402.71185 
   49800    299.36165   -70452.163   -70095.583     98.62937    95.117188          160    11.403886   -19599.769   -351.92023 
   49900    301.86186   -70452.636   -70093.079    98.724029    95.134488          160   -21.157248   -19563.734   -191.97302 
   50000    301.01032   -70449.058   -70090.515    98.820451    95.151789          160   -48.305689   -19624.764    18.342946 
   50100    300.07118   -70444.938   -70087.513    98.881644    95.169089          160    103.04642   -19599.157    123.55746 
   50200    300.21429   -70441.771   -70084.176    99.002736    95.186389          160   -89.770081   -19517.283       64.805 
   50300    294.71841   -70431.606   -70080.557    99.054277     95.20369          160     77.89585    -19502.26   -68.630259 
   50400    298.20061   -70432.204   -70077.008    99.105212     95.22099          160     15.59758   -19504.402   -59.958433 
   50500    298.19156    -70428.09   -70072.904    99.181177     95.23829          160   -104.21339   -19537.573    210.02114 
   50600    303.01386    -70429.93       -70069     99.25591     95.25559          160    67.921285   -19710.838    230.19129 
   50700    298.92734    -70421.16   -70065.098    99.286506    95.272891          160     43.11408   -19605.368    120.85471 
   50800    299.71398   -70418.144   -70061.145    99.377827    95.290191          160   -90.820509   -19529.533    3.3713292 
   50900    302.92426   -70418.197   -70057.374    99.316146    95.307491          160    71.376781   -19450.682     53.15409 
   51000    299.54626   -70410.406   -70053.606    99.335475    95.324792          160   -47.782144   -19606.513    239.23713 
   51100    298.47185   -70405.044   -70049.525    99.296686    95.342092          160    78.157916   -19658.402    202.56098 
   51200    301.77288   -70404.734   -70045.283    99.296775    95.359392          160    43.885277   -19674.202     126.0969 
   51300    295.07159   -70393.113   -70041.644    99.301314    95.376693          160   -50.895251   -19629.201     82.33783 
   51400    298.49673   -70392.612   -70037.063    99.251733    95.393993          160   -49.071268   -19472.509    194.13371 
   51500    300.35572    -70390.34   -70032.576    99.202041    95.411293          160    48.417824    -19645.38    219.77167 
   51600    299.75309   -70385.328   -70028.283    99.151445    95.428594          160    130.36949   -19802.307    44.415657 
   51700    301.28131   -70382.781   -70023.915    99.225158    95.445894          160   -144.26806   -19906.803    6.9018592 
   51800    299.37158   -70377.244   -70020.653    99.203357    95.463194          160  -0.62833819   -19788.156    188.41439 
   51900     298.8527    -70373.32   -70017.347    99.263406    95.480495          160   -92.134061   -19745.647    197.96667 
   52000    299.15813   -70371.103   -70014.766    99.261683    95.497795          160    18.831785   -19818.223    45.374364 
   52100    302.76052   -70373.001   -70012.373    99.301117    95.515095          160   -60.583969   -19994.788    127.41105 
   52200    303.16581   -70371.291   -70010.181    99.237592    95.532396          160     35.25196   -19973.587    392.69582 
   52300    302.19172   -70368.077   -70008.127    99.295395    95.549696          160   -64.609105   -20051.244    242.81949 
   52400    298.69534   -70361.062   -70005.276    99.195405    95.566996          160    81.837316   -19924.859    48.070321 
   52500    303.31033   -70363.732    -70002.45     99.21039    95.584297          160   -143.99336   -20167.103    50.209224 
   52600    299.44847   -70355.724   -69999.041     99.12336    95.601597          160    66.544608   -20284.195    43.662572 
   52700    303.16976   -70356.903   -69995.788    99.063814    95.618897          160    32.546524   -20410.262   -38.533885 
   52800    300.38415    -70350.27   -69992.473    99.011041    95.636198          160   -76.470567   -20476.233   -50.808012 
   52900    299.86619    -70342.86   -69985.679    98.876891    95.653498          160    203.16536    -20474.47   -94.525183 
   53000    298.44996    -70337.61   -69982.116    98.862149    95.670798          160    -41.17074   -20498.989   -73.971623 
   53100    304.15188   -70335.673   -69973.388     98.75579    95.688099          160   -46.148255   -20475.146   -80.129137 
   53200    303.81496   -70330.566   -69968.682     98.65927    95.705399          160    25.794138   -20234.487   -73.896011 
[...]
   65400     295.1619   -70363.581   -70012.005    98.693629    97.816039          160   -92.498326   -2876.7431    10.447229 
   65500    300.30456   -70365.882    -70008.18    98.684408    97.833339          160    76.529862   -2870.8894   -67.279208 
   65600    302.34162   -70363.577   -70003.448    98.723655    97.850639          160    30.114655   -2595.7327   -71.541561 
   65700    302.49396   -70362.465   -70002.154    98.773148     97.86794          160   -66.640488   -2537.9891   -21.051952 
   65800    304.35835   -70370.292   -70007.761    98.787672     97.88524          160    60.163595   -2588.1056     19.53993 
   65900    304.61877   -70373.118   -70010.277    98.930859     97.90254          160   -154.78705   -2900.5608   -134.78981 
   66000    304.01033   -70376.334   -70014.217    98.908072    97.919841          160    30.582045   -2716.8217   -3.3815664 
   66100    301.90282    -70377.25   -70017.644    98.961226    97.937141          160   -104.28491    -2826.376    126.78456 
   66200    303.35196   -70379.693   -70018.361    98.993706    97.954441          160   -26.046224   -2627.2958   -12.453381 
   66300    299.21201   -70372.252   -70015.851    99.019798    97.971742          160    141.81096   -2565.4107   -112.70586 
   66400    299.57306   -70370.409   -70013.578    99.222585    97.989042          160   -139.93152   -2773.9341   -64.469074 
   66500    299.52428   -70369.273     -70012.5    99.175233    98.006342          160    82.417865   -2641.9807    123.74458 
   66600    298.72928   -70367.464   -70011.638    99.273062    98.023643          160   -66.454904   -2556.0964    107.34398 
   66700    302.20691   -70371.279   -70011.311    99.293701    98.040943          160   -53.614898   -2587.1995    52.172136 
   66800    300.54436   -70373.456   -70015.468    99.228333    98.058243          160    109.58672    -2575.934    56.666155 
   66900    298.32912   -70371.882   -70016.533     99.22271    98.075544          160   -68.373077   -2473.7863  -0.82931574 
   67000    304.17203    -70379.24   -70016.931    99.279648    98.092844          160   -155.32138    -2723.407    11.724712 
   67100    297.79413   -70372.991   -70018.278    99.166011    98.110144          160    210.30926   -2948.5219    13.789608 
   67200    297.60995   -70372.133    -70017.64    99.205982    98.127444          160   -77.100678    -2938.704   -169.48654 
   67300    296.37917   -70369.377   -70016.351    99.163507    98.144745          160    31.502507   -3093.3808    -153.9266 
   67400    296.91361   -70368.303    -70014.64    99.112979    98.162045          160    137.39466   -3010.2439   -55.697589 
   67500    301.05926    -70371.84   -70013.238    99.197471    98.179345          160   -197.05678    -2842.584   -36.800439 
   67600    298.23764    -70371.15    -70015.91    99.123089    98.196646          160    71.443118   -2892.9269    101.10237 
   67700    296.97306   -70368.501   -70014.767    99.168986    98.213946          160    84.566439   -2991.4855   -42.271979 
   67800    302.75433   -70374.811   -70014.191    99.243279    98.231246          160   -101.98711   -3000.9045   -39.738558 
   67900    299.40469   -70371.588   -70014.957    99.213345    98.248547          160   -31.276201     -2862.83    89.073864 
   68000    302.96304   -70374.698   -70013.829    99.202791    98.265847          160    29.934001   -2842.5429    47.543945 
   68100    301.27366   -70372.097    -70013.24     99.15312    98.283147          160    139.48171   -3007.6065    31.433749 
   68200    299.17327   -70370.318   -70013.963    99.265837    98.300448          160   -207.15979   -3076.9406   -2.8842637 
   68300    298.68448    -70371.42   -70015.647    99.099218    98.317748          160    85.012403   -3035.4769    178.20539 
   68400    301.87279    -70373.93    -70014.36    99.091427    98.335048          160   -10.952259   -3216.4009    40.166396 
   68500    301.64218   -70372.905   -70013.609    99.061445    98.352349          160   -29.936111   -3176.1744   -237.22537 
   68600    301.40783   -70371.985   -70012.968    99.008607    98.369649          160     163.5661   -3041.4294   -100.29753 
   68700    301.97302   -70370.717   -70011.027    99.123256    98.386949          160   -139.47829   -3154.9055    83.867253 
   68800    303.24677   -70371.993   -70010.786    99.155486     98.40425          160   -79.250345   -3252.0323    40.691442 
   68900    301.79689   -70371.057   -70011.577    99.192662     98.42155          160   -47.160974   -3157.5241   -40.654635 
   69000    301.14933   -70371.245   -70012.537    99.110288     98.43885          160    4.4540833    -3064.761   -105.75768 
   69100    304.26058   -70375.726   -70013.312    99.055152    98.456151          160     -36.0283   -2967.6609    93.100282 
   69200    296.12823   -70366.636   -70013.908     98.99295    98.473451          160   -3.9107766   -3061.6323   -54.452917 
   69300    301.09229   -70369.662   -70011.021    98.999077    98.490751          160   -12.601833   -3026.9933   -33.684221 
   69400    299.27145   -70367.259   -70010.787    98.923411    98.508052          160    108.77756   -2818.6931    197.85271 
   69500     299.9552   -70368.305   -70011.019    98.957742    98.525352          160   -30.932645   -2803.1178     197.0459 
   69600    300.30471   -70369.504   -70011.801    98.908871    98.542652          160    23.145829   -2756.2839    87.714483 
   69700      298.483   -70367.129   -70011.596    98.833631    98.559953          160    16.968546   -2701.0844   -5.0744978 
   69800    294.93542   -70360.321   -70009.014    98.827182    98.577253          160   -60.631695   -2968.1161     157.5611 
   69900    301.33683   -70364.976   -70006.044    98.691051    98.594553          160    113.93002   -2955.2182    143.25809 
   70000    301.47731   -70364.474   -70005.375    98.736995    98.611854          160   -60.177851   -2981.0992   -69.163561 
   70100    301.35322   -70366.518   -70007.566    98.695679    98.629154          160    74.799779   -2945.0971    22.208683 
   70200     302.1722   -70369.448   -70009.521    98.763814    98.646454          160   -36.627901   -2974.6476   -89.836568 
   70300    301.21561   -70369.523   -70010.735    98.848529    98.663755          160    -102.0593   -3269.8412   -30.345224 
   70400    300.61797   -70369.391   -70011.315    98.788144    98.681055          160    103.88108   -3305.6205    -94.71367 
   70500    303.89985   -70374.281   -70012.296    98.825305    98.698355          160   -67.470319   -3375.8221   -59.263991 
   70600    297.82086   -70367.093   -70012.349     98.81318    98.715656          160    23.058949   -3263.2805   -40.056638 
   70700    300.67366   -70369.258   -70011.116     98.80427    98.732956          160   -41.077001   -3256.1103   -49.362309 
   70800    296.64235   -70363.702   -70010.361    98.782922    98.750256          160    6.6366721   -3470.0929    31.236716 
   70900    298.24846   -70360.882   -70005.628    98.780578    98.767557          160   -5.5846475   -3138.9974    85.583575 
   71000    300.49795   -70362.196   -70004.263    98.815897    98.784857          160   -115.40547    -3309.205   -57.904517 
   71100    293.76034   -70353.009   -70003.101    98.770795    98.802157          160    1.7666358   -3323.5853   -69.169173 
   71200    301.04487   -70359.517   -70000.933     98.78668    98.819457          160   -2.1316064   -3084.5453   -218.85961 
   71300    300.27585   -70358.479    -70000.81    98.819431    98.836758          160    28.295382   -3023.4267   -30.375213 
   71400    306.07948   -70363.958   -69999.376    98.845041    98.854058          160   -116.36391   -3159.2901    183.99657 
   71500     304.4965   -70365.728   -70003.033    98.856309    98.871358          160   -6.9179449   -3238.7637    40.198137 
   71600    303.89732   -70366.286   -70004.305    98.829425    98.888659          160    166.26422   -3132.3526   -218.58557 
   71700    301.22235   -70364.549   -70005.753    98.923106    98.905959          160   -29.926989   -3154.8977   -90.867843 
   71800    297.86987   -70362.178   -70007.375    98.930717    98.923259          160   -77.340541   -3001.7135   -27.487342 
   71900    299.16425   -70360.249   -70003.905    98.903769     98.94056          160    36.106297    -2986.848   -113.15671 
   72000    299.51185   -70358.405   -70001.647    98.888612     98.95786          160    176.29581   -3050.8744     92.47987 
   72100    296.25184   -70352.806   -69999.931    98.967576     98.97516          160   -114.56957   -2975.6925    20.831741 
   72200    298.57967   -70353.174   -69997.526    98.949378    98.992461          160   -54.082721    -2900.903   -80.889039 
   72300    296.55544    -70349.62   -69996.383    98.958397    99.009761          160    101.60145   -2997.6403   -158.28473 
   72400    300.59485    -70353.21   -69995.162    99.000759    99.027061          160   -36.467691   -2943.9499    67.453146 
   72500    297.67972    -70350.28   -69995.704    98.958109    99.044362          160    73.316549   -2680.5454    144.42681 
   72600    300.20974   -70353.451   -69995.861    99.090922    99.061662          160    50.940025   -2845.8813     24.87495 
   72700    303.54578    -70358.65   -69997.086    99.119322    99.078962          160    35.693762   -2733.7821    180.22497 
   72800    298.23099   -70352.655   -69997.423    99.184891    99.096263          160   -65.536524   -3052.3522    271.11915 
   72900    299.13718   -70352.668   -69996.356     99.13214    99.113563          160    133.50349   -3078.6149   -29.142612 
   73000     298.4074   -70351.752   -69996.309    99.192875    99.130863          160   -170.58439   -3159.0998    -49.63237 
   73100    304.27302   -70357.569    -69995.14     99.10501    99.148164          160    150.29343   -3141.8233    14.695679 
   73200    302.61546   -70355.252   -69994.797    99.189508    99.165464          160    -3.008588   -3152.0073     39.30883 
   73300    300.96916    -70353.57   -69995.075    99.212665    99.182764          160   -66.120395   -3292.6518    10.047251 
   73400    299.24577   -70351.047   -69994.606    99.206567    99.200065          160    7.6751671   -3496.8083   -2.3739776 
   73500    298.21442   -70348.454   -69993.241    99.206974    99.217365          160   -32.817881   -3557.5248   -131.25563 
   73600     302.0592   -70352.182   -69992.389    99.111356    99.234665          160    93.331033   -3236.7218   -24.152231 
   73700    300.90016   -70350.012     -69991.6    99.103385    99.251966          160   -58.510758   -3251.6694    112.91389 
   73800    300.98877   -70349.656   -69991.139    99.033645    99.269266          160   -37.486863   -3198.1491   -51.334503 
   73900    300.66412    -70349.11   -69990.979    98.995126    99.286566          160    154.07596   -3287.2208   -102.51211 
   74000    301.84129   -70350.112   -69990.579    99.000779    99.303867          160    17.706125   -3159.2729   -56.017476 
   74100    298.54154   -70346.658   -69991.055    99.049829    99.321167          160   -216.21618    -3253.439   -7.0389022 
   74200    301.88384   -70351.256   -69991.672    98.913904    99.338467          160    226.73916   -3149.6746    173.78053 
   74300    299.30556   -70348.525   -69992.013     98.96795    99.355768          160   -29.667982   -3255.1935   -82.598897 
   74400    300.37902    -70348.18   -69990.389    98.917731    99.373068          160    26.154157   -3044.6414   -102.94026 
   74500     296.8514   -70342.293   -69988.704    98.891995    99.390368          160    80.392031    -3074.025   -60.974994 
   74600    300.69386   -70344.062   -69985.896    98.914548    99.407669          160   -102.14157   -3060.0641   -22.721534 
   74700    299.74092   -70342.073   -69985.042    98.903643    99.424969          160   -105.17682   -3308.8209    44.939142 
   74800     300.9366   -70344.191   -69985.735    98.855109    99.442269          160     74.69493   -3244.8042    4.4743496 
   74900    300.34738   -70343.781   -69986.027    98.908467     99.45957          160   -117.64387    -3084.911    67.549443 
   75000     299.4672   -70343.792   -69987.087    98.812732     99.47687          160    3.0373205   -3101.6668   -78.900656 
   75100    301.49727   -70343.366   -69984.243    98.766577     99.49417          160   -64.138766   -3095.1568   -134.17015 
   75200    299.11276   -70339.838   -69983.555    98.689311     99.51147          160   -77.724015   -2933.8439     46.89935 
   75300    303.11752   -70344.872   -69983.819    98.812977    99.528771          160   -61.977783   -3073.1677    166.14443 
   75400     303.4572   -70345.855   -69984.398    98.841746    99.546071          160      61.1071   -2979.0735    174.51846 
   75500    304.01166    -70345.96   -69983.842    98.847114    99.563371          160   -2.9158115   -3103.3075     167.7953 
   75600    297.95336   -70338.583   -69983.681    98.806589    99.580672          160   -55.360182    -3167.885   -109.48402 
   75700    297.39768   -70335.934   -69981.694     98.73862    99.597972          160   -19.077894   -3211.2192   -231.75984 
   75800    298.28867   -70337.122    -69981.82    98.680792    99.615272          160     73.76132   -3140.6874    18.909721 
   75900     304.0617   -70344.739   -69982.561     98.76117    99.632573          160   -50.065103   -3244.8845    203.78894 
   76000    300.07257   -70341.822   -69984.396    98.790693    99.649873          160   -89.544368   -3176.3237    23.661091 
   76100    295.79398     -70337.2    -69984.87    98.712464    99.667173          160    80.483567   -3081.2227   -45.616828 
   76200    300.79746   -70342.091   -69983.801     98.68791    99.684474          160  -0.60972208   -3062.0079    132.49239 
   76300    297.20486   -70336.857   -69982.847    98.658835    99.701774          160   -19.760702   -2983.6834    239.44764 
   76400    299.96135   -70339.026   -69981.732    98.637182    99.719074          160   -84.894919   -3166.0276    18.260214 
   76500     299.5802   -70338.173   -69981.334    98.496754    99.736375          160    149.85408   -3143.6905   -83.787756 
   76600    301.72631   -70339.619   -69980.223    98.570345    99.753675          160   -11.803539   -3337.1932   -215.32802 
   76700    298.49129    -70334.96   -69979.417    98.579285    99.770975          160   -159.12001   -3318.7771   -315.87099 
   76800    298.65083   -70333.806   -69978.074    98.529823    99.788276          160    127.52627   -3304.6956   -26.908408 
   76900    303.41628   -70339.442   -69978.033    98.545877    99.805576          160    11.103869   -3370.9176   -58.531859 
   77000    298.63625   -70333.654   -69977.939    98.558321    99.822876          160   -104.68192   -3501.5039   -222.96348 
   77100    300.11942   -70333.657   -69976.175    98.539373    99.840177          160    53.345815   -3526.8777   -169.00588 
   77200    303.92855   -70337.826   -69975.807    98.530397    99.857477          160   -19.291938   -3399.9193   -43.868928 
   77300    302.21626   -70335.877   -69975.898     98.57527    99.874777          160   -29.696631   -3494.3063    28.671102 
   77400    303.42289   -70334.399   -69972.982    98.602336    99.892078          160   -99.945547   -3332.5795   -60.747553 
   77500    298.62288   -70329.676   -69973.977    98.613296    99.909378          160    31.865199   -3532.6594   -109.42083 
   77600    299.62076   -70330.323   -69973.435     98.61883    99.926678          160     152.6793   -3509.4917   -17.927475 
   77700    300.61912   -70332.332   -69974.255    98.799231    99.943979          160   -201.51397   -3487.5704     25.29825 
   77800    302.25227   -70330.482    -69970.46    98.746688    99.961279          160    149.44687   -3313.3274    84.908077 
   77900     301.5756   -70330.469   -69971.252    98.870492    99.978579          160   -128.72665   -3237.1592   -141.26086 
   78000    297.15036   -70327.292   -69973.346    98.872112     99.99588          160    25.987634   -3251.7741   -166.00862 
   78100    301.95487   -70333.762   -69974.094    98.906035    100.01318          160    81.690977    -3287.314   -95.615956 
   78200    297.83141   -70329.002   -69974.246    98.992045    100.03048          160   -131.22163   -3138.9044    16.390099 
   78300    301.85686   -70333.071    -69973.52    98.999331    100.04778          160    41.307633   -3179.2305    172.82277 
   78400    299.69094   -70330.639   -69973.668    98.998137    100.06508          160   -25.971267    -3101.594    188.30196 
   78500    299.14847   -70328.732   -69972.407    98.945243    100.08238          160    -7.061295   -3016.8542    14.582573 
   78600     298.6582   -70326.712    -69970.97    98.921352    100.09968          160    38.651181   -3073.2634   -13.262679 
   78700    297.99983   -70324.573   -69969.616    98.857269    100.11698          160    68.384334   -3120.4888    195.79852 
   78800    301.61886   -70327.794   -69968.526    98.848295    100.13428          160    27.625193   -3123.0804    205.24345 
   78900    299.50758   -70324.203    -69967.45    98.835517    100.15158          160    147.73599   -3215.4161   -15.120775 
   79000    300.07295   -70323.203   -69965.777     98.86878    100.16888          160   -55.676346   -3247.2348    57.212691 
   79100     300.3921   -70322.291   -69964.484    98.864263    100.18618          160   -76.275788   -3200.3807    142.92983 
   79200    298.39797    -70318.52   -69963.089    98.824507    100.20348          160    29.564129   -3255.5739   0.21126374 
   79300     302.9564   -70323.127   -69962.266    98.775036    100.22078          160   -11.703748   -3418.6089    25.794135 
   79400    300.77888    -70321.47   -69963.202    98.785513    100.23808          160    11.489362    -3419.799   -72.863999 
   79500    299.05649   -70319.275   -69963.059    98.804467    100.25538          160    7.7970294   -3356.2711    -76.57819 
   79600    298.30599    -70317.71   -69962.388    98.797693    100.27268          160   -3.8156998   -3329.2206    44.311471 
   79700    302.88074    -70322.34   -69961.569    98.854599    100.28999          160   -29.256853   -3462.1978   -82.428221 
   79800    303.81569   -70323.954   -69962.069    98.825354    100.30729          160    64.984915   -3529.3149     -74.3724 
   79900    300.73557   -70319.774   -69961.558     98.79616    100.32459          160    25.232283   -3268.7857    106.16069 
   80000     298.0895   -70316.605   -69961.541    98.779737    100.34189          160    -52.47229   -3417.7962    85.383096 
Loop time of 562.553 on 24 procs for 80000 steps with 9216 atoms

Performance: 6.143 ns/day, 3.907 hours/ns, 142.209 timesteps/s
98.1% CPU use with 24 MPI tasks x no OpenMP threads

MPI task timing breakdown:
Section |  min time  |  avg time  |  max time  |%varavg| %total
---------------------------------------------------------------
Pair    | 137.55     | 308.99     | 534.76     | 876.2 | 54.93
Neigh   | 2.0761     | 5.5243     | 9.5924     | 132.4 |  0.98
Comm    | 12.648     | 238.4      | 415.85     |1011.4 | 42.38
Output  | 0.14012    | 0.15448    | 0.15542    |   0.8 |  0.03
Modify  | 5.1306     | 8.3484     | 13.755     | 119.3 |  1.48
Other   |            | 1.135      |            |       |  0.20

Nlocal:        384.000 ave         762 max          56 min
Histogram: 5 4 3 0 0 0 5 1 3 3
Nghost:        1675.08 ave        2467 max        1117 min
Histogram: 3 9 0 0 1 3 1 4 1 2
Neighs:        0.00000 ave           0 max           0 min
Histogram: 24 0 0 0 0 0 0 0 0 0
FullNghs:      76220.0 ave      161932 max       11093 min
Histogram: 7 2 3 0 0 3 3 2 2 2

Total # of neighbors = 1829280
Ave neighs/atom = 198.48958
Neighbor list builds = 403
Dangerous builds = 0
Total wall time: 0:15:03
