ITEM: TIMESTEP
0
ITEM: NUMBER OF ATOMS
420
ITEM: BOX BOUNDS pp ss pp
0.0000000000000000e+00 2.2653923264628304e+01
2.1918578738840608e-01 1.9700307716395383e+01
-2.8317404080785380e-01 2.8317404080785380e-01
ITEM: ATOMS id type xs ys zs
1 2 0 0.000100727 0.5
2 2 0.025 0.0494893 0.5
3 2 0.05 0.000100727 0.5
4 2 0.075 0.0494893 0.5
5 2 0.1 0.000100727 0.5
6 2 0.125 0.0494893 0.5
7 2 0.15 0.000100727 0.5
8 2 0.175 0.0494893 0.5
9 2 0.2 0.000100727 0.5
10 2 0.225 0.0494893 0.5
11 2 0.25 0.000100727 0.5
12 2 0.275 0.0494893 0.5
13 2 0.3 0.000100727 0.5
14 2 0.325 0.0494893 0.5
15 2 0.35 0.000100727 0.5
16 2 0.375 0.0494893 0.5
17 2 0.4 0.000100727 0.5
18 2 0.425 0.0494893 0.5
19 2 0.45 0.000100727 0.5
20 2 0.475 0.0494893 0.5
41 2 3.57546e-18 0.0986755 0.5
42 1 0.025 0.147853 0.5
43 2 0.05 0.0986755 0.5
44 1 0.075 0.147853 0.5
45 2 0.1 0.0986755 0.5
46 1 0.125 0.147853 0.5
47 2 0.15 0.0986755 0.5
48 1 0.175 0.147853 0.5
49 2 0.2 0.0986755 0.5
50 1 0.225 0.147853 0.5
51 2 0.25 0.0986755 0.5
52 1 0.275 0.147853 0.5
53 2 0.3 0.0986755 0.5
54 1 0.325 0.147853 0.5
55 2 0.35 0.0986755 0.5
56 1 0.375 0.147853 0.5
57 2 0.4 0.0986755 0.5
58 1 0.425 0.147853 0.5
59 2 0.45 0.0986755 0.5
60 1 0.475 0.147853 0.5
81 1 2.74429e-20 0.197054 0.5
82 1 0.025 0.246252 0.5
83 1 0.05 0.197054 0.5
84 1 0.075 0.246252 0.5
85 1 0.1 0.197054 0.5
86 1 0.125 0.246252 0.5
87 1 0.15 0.197054 0.5
88 1 0.175 0.246252 0.5
89 1 0.2 0.197054 0.5
90 1 0.225 0.246252 0.5
91 1 0.25 0.197054 0.5
92 1 0.275 0.246252 0.5
93 1 0.3 0.197054 0.5
94 1 0.325 0.246252 0.5
95 1 0.35 0.197054 0.5
96 1 0.375 0.246252 0.5
97 1 0.4 0.197054 0.5
98 1 0.425 0.246252 0.5
99 1 0.45 0.197054 0.5
100 1 0.475 0.246252 0.5
121 1 0 0.295458 0.5
122 1 0.025 0.344668 0.5
123 1 0.05 0.295458 0.5
124 1 0.075 0.344668 0.5
125 1 0.1 0.295458 0.5
126 1 0.125 0.344668 0.5
127 1 0.15 0.295458 0.5
128 1 0.175 0.344668 0.5
129 1 0.2 0.295458 0.5
130 1 0.225 0.344668 0.5
131 1 0.25 0.295458 0.5
132 1 0.275 0.344668 0.5
133 1 0.3 0.295458 0.5
134 1 0.325 0.344668 0.5
135 1 0.35 0.295458 0.5
136 1 0.375 0.344668 0.5
137 1 0.4 0.295458 0.5
138 1 0.425 0.344668 0.5
139 1 0.45 0.295458 0.5
140 1 0.475 0.344668 0.5
161 1 0 0.393872 0.5
162 1 0.025 0.443077 0.5
163 1 0.05 0.393872 0.5
164 1 0.075 0.443077 0.5
165 1 0.1 0.393872 0.5
166 1 0.125 0.443077 0.5
167 1 0.15 0.393872 0.5
168 1 0.175 0.443077 0.5
169 1 0.2 0.393872 0.5
170 1 0.225 0.443077 0.5
171 1 0.25 0.393872 0.5
172 1 0.275 0.443077 0.5
173 1 0.3 0.393872 0.5
174 1 0.325 0.443077 0.5
175 1 0.35 0.393872 0.5
176 1 0.375 0.443077 0.5
177 1 0.4 0.393872 0.5
178 1 0.425 0.443077 0.5
179 1 0.45 0.393872 0.5
180 1 0.475 0.443077 0.5
201 1 0 0.492284 0.5
202 1 0.025 0.541492 0.5
203 1 0.05 0.492284 0.5
204 1 0.075 0.541492 0.5
205 1 0.1 0.492284 0.5
206 1 0.125 0.541492 0.5
207 1 0.15 0.492284 0.5
208 1 0.175 0.541492 0.5
209 1 0.2 0.492284 0.5
210 1 0.225 0.541492 0.5
211 1 0.25 0.492284 0.5
212 1 0.275 0.541492 0.5
213 1 0.3 0.492284 0.5
214 1 0.325 0.541492 0.5
215 1 0.35 0.492284 0.5
216 1 0.375 0.541492 0.5
217 1 0.4 0.492284 0.5
218 1 0.425 0.541492 0.5
219 1 0.45 0.492284 0.5
220 1 0.475 0.541492 0.5
241 1 0 0.590697 0.5
242 1 0.025 0.639901 0.5
243 1 0.05 0.590697 0.5
244 1 0.075 0.639901 0.5
245 1 0.1 0.590697 0.5
246 1 0.125 0.639901 0.5
247 1 0.15 0.590697 0.5
248 1 0.175 0.639901 0.5
249 1 0.2 0.590697 0.5
250 1 0.225 0.639901 0.5
251 1 0.25 0.590697 0.5
252 1 0.275 0.639901 0.5
253 1 0.3 0.590697 0.5
254 1 0.325 0.639901 0.5
255 1 0.35 0.590697 0.5
256 1 0.375 0.639901 0.5
257 1 0.4 0.590697 0.5
258 1 0.425 0.639901 0.5
259 1 0.45 0.590697 0.5
260 1 0.475 0.639901 0.5
281 1 2.18851e-18 0.689111 0.5
282 1 0.025 0.738317 0.5
283 1 0.05 0.689111 0.5
284 1 0.075 0.738317 0.5
285 1 0.1 0.689111 0.5
286 1 0.125 0.738317 0.5
287 1 0.15 0.689111 0.5
288 1 0.175 0.738317 0.5
289 1 0.2 0.689111 0.5
290 1 0.225 0.738317 0.5
291 1 0.25 0.689111 0.5
292 1 0.275 0.738317 0.5
293 1 0.3 0.689111 0.5
294 1 0.325 0.738317 0.5
295 1 0.35 0.689111 0.5
296 1 0.375 0.738317 0.5
297 1 0.4 0.689111 0.5
298 1 0.425 0.738317 0.5
299 1 0.45 0.689111 0.5
300 1 0.475 0.738317 0.5
321 1 0 0.787515 0.5
322 1 0.025 0.836716 0.5
323 1 0.05 0.787515 0.5
324 1 0.075 0.836716 0.5
325 1 0.1 0.787515 0.5
326 1 0.125 0.836716 0.5
327 1 0.15 0.787515 0.5
328 1 0.175 0.836716 0.5
329 1 0.2 0.787515 0.5
330 1 0.225 0.836716 0.5
331 1 0.25 0.787515 0.5
332 1 0.275 0.836716 0.5
333 1 0.3 0.787515 0.5
334 1 0.325 0.836716 0.5
335 1 0.35 0.787515 0.5
336 1 0.375 0.836716 0.5
337 1 0.4 0.787515 0.5
338 1 0.425 0.836716 0.5
339 1 0.45 0.787515 0.5
340 1 0.475 0.836716 0.5
361 1 5.74281e-19 0.885893 0.5
362 1 0.025 0.935079 0.5
363 1 0.05 0.885893 0.5
364 1 0.075 0.935079 0.5
365 1 0.1 0.885893 0.5
366 1 0.125 0.935079 0.5
367 1 0.15 0.885893 0.5
368 1 0.175 0.935079 0.5
369 1 0.2 0.885893 0.5
370 1 0.225 0.935079 0.5
371 1 0.25 0.885893 0.5
372 1 0.275 0.935079 0.5
373 1 0.3 0.885893 0.5
374 1 0.325 0.935079 0.5
375 1 0.35 0.885893 0.5
376 1 0.375 0.935079 0.5
377 1 0.4 0.885893 0.5
378 1 0.425 0.935079 0.5
379 3 0.45 0.885893 0.5
380 3 0.475 0.935079 0.5
401 1 3.60804e-19 0.984468 0.5
402 1 0.05 0.984468 0.5
403 1 0.1 0.984468 0.5
404 1 0.15 0.984468 0.5
405 1 0.2 0.984468 0.5
406 1 0.25 0.984468 0.5
407 1 0.3 0.984468 0.5
408 1 0.35 0.984468 0.5
409 1 0.4 0.984468 0.5
410 3 0.45 0.984468 0.5
21 2 0.5 0.000100727 0.5
22 2 0.525 0.0494893 0.5
23 2 0.55 0.000100727 0.5
24 2 0.575 0.0494893 0.5
25 2 0.6 0.000100727 0.5
26 2 0.625 0.0494893 0.5
27 2 0.65 0.000100727 0.5
28 2 0.675 0.0494893 0.5
29 2 0.7 0.000100727 0.5
30 2 0.725 0.0494893 0.5
31 2 0.75 0.000100727 0.5
32 2 0.775 0.0494893 0.5
33 2 0.8 0.000100727 0.5
34 2 0.825 0.0494893 0.5
35 2 0.85 0.000100727 0.5
36 2 0.875 0.0494893 0.5
37 2 0.9 0.000100727 0.5
38 2 0.925 0.0494893 0.5
39 2 0.95 0.000100727 0.5
40 2 0.975 0.0494893 0.5
61 2 0.5 0.0986755 0.5
62 1 0.525 0.147853 0.5
63 2 0.55 0.0986755 0.5
64 1 0.575 0.147853 0.5
65 2 0.6 0.0986755 0.5
66 1 0.625 0.147853 0.5
67 2 0.65 0.0986755 0.5
68 1 0.675 0.147853 0.5
69 2 0.7 0.0986755 0.5
70 1 0.725 0.147853 0.5
71 2 0.75 0.0986755 0.5
72 1 0.775 0.147853 0.5
73 2 0.8 0.0986755 0.5
74 1 0.825 0.147853 0.5
75 2 0.85 0.0986755 0.5
76 1 0.875 0.147853 0.5
77 2 0.9 0.0986755 0.5
78 1 0.925 0.147853 0.5
79 2 0.95 0.0986755 0.5
80 1 0.975 0.147853 0.5
101 1 0.5 0.197054 0.5
102 1 0.525 0.246252 0.5
103 1 0.55 0.197054 0.5
104 1 0.575 0.246252 0.5
105 1 0.6 0.197054 0.5
106 1 0.625 0.246252 0.5
107 1 0.65 0.197054 0.5
108 1 0.675 0.246252 0.5
109 1 0.7 0.197054 0.5
110 1 0.725 0.246252 0.5
111 1 0.75 0.197054 0.5
112 1 0.775 0.246252 0.5
113 1 0.8 0.197054 0.5
114 1 0.825 0.246252 0.5
115 1 0.85 0.197054 0.5
116 1 0.875 0.246252 0.5
117 1 0.9 0.197054 0.5
118 1 0.925 0.246252 0.5
119 1 0.95 0.197054 0.5
120 1 0.975 0.246252 0.5
141 1 0.5 0.295458 0.5
142 1 0.525 0.344668 0.5
143 1 0.55 0.295458 0.5
144 1 0.575 0.344668 0.5
145 1 0.6 0.295458 0.5
146 1 0.625 0.344668 0.5
147 1 0.65 0.295458 0.5
148 1 0.675 0.344668 0.5
149 1 0.7 0.295458 0.5
150 1 0.725 0.344668 0.5
151 1 0.75 0.295458 0.5
152 1 0.775 0.344668 0.5
153 1 0.8 0.295458 0.5
154 1 0.825 0.344668 0.5
155 1 0.85 0.295458 0.5
156 1 0.875 0.344668 0.5
157 1 0.9 0.295458 0.5
158 1 0.925 0.344668 0.5
159 1 0.95 0.295458 0.5
160 1 0.975 0.344668 0.5
181 1 0.5 0.393872 0.5
182 1 0.525 0.443077 0.5
183 1 0.55 0.393872 0.5
184 1 0.575 0.443077 0.5
185 1 0.6 0.393872 0.5
186 1 0.625 0.443077 0.5
187 1 0.65 0.393872 0.5
188 1 0.675 0.443077 0.5
189 1 0.7 0.393872 0.5
190 1 0.725 0.443077 0.5
191 1 0.75 0.393872 0.5
192 1 0.775 0.443077 0.5
193 1 0.8 0.393872 0.5
194 1 0.825 0.443077 0.5
195 1 0.85 0.393872 0.5
196 1 0.875 0.443077 0.5
197 1 0.9 0.393872 0.5
198 1 0.925 0.443077 0.5
199 1 0.95 0.393872 0.5
200 1 0.975 0.443077 0.5
221 1 0.5 0.492284 0.5
222 1 0.525 0.541492 0.5
223 1 0.55 0.492284 0.5
224 1 0.575 0.541492 0.5
225 1 0.6 0.492284 0.5
226 1 0.625 0.541492 0.5
227 1 0.65 0.492284 0.5
228 1 0.675 0.541492 0.5
229 1 0.7 0.492284 0.5
230 1 0.725 0.541492 0.5
231 1 0.75 0.492284 0.5
232 1 0.775 0.541492 0.5
233 1 0.8 0.492284 0.5
234 1 0.825 0.541492 0.5
235 1 0.85 0.492284 0.5
236 1 0.875 0.541492 0.5
237 1 0.9 0.492284 0.5
238 1 0.925 0.541492 0.5
239 1 0.95 0.492284 0.5
240 1 0.975 0.541492 0.5
261 1 0.5 0.590697 0.5
262 1 0.525 0.639901 0.5
263 1 0.55 0.590697 0.5
264 1 0.575 0.639901 0.5
265 1 0.6 0.590697 0.5
266 1 0.625 0.639901 0.5
267 1 0.65 0.590697 0.5
268 1 0.675 0.639901 0.5
269 1 0.7 0.590697 0.5
270 1 0.725 0.639901 0.5
271 1 0.75 0.590697 0.5
272 1 0.775 0.639901 0.5
273 1 0.8 0.590697 0.5
274 1 0.825 0.639901 0.5
275 1 0.85 0.590697 0.5
276 1 0.875 0.639901 0.5
277 1 0.9 0.590697 0.5
278 1 0.925 0.639901 0.5
279 1 0.95 0.590697 0.5
280 1 0.975 0.639901 0.5
301 1 0.5 0.689111 0.5
302 1 0.525 0.738317 0.5
303 1 0.55 0.689111 0.5
304 1 0.575 0.738317 0.5
305 1 0.6 0.689111 0.5
306 1 0.625 0.738317 0.5
307 1 0.65 0.689111 0.5
308 1 0.675 0.738317 0.5
309 1 0.7 0.689111 0.5
310 1 0.725 0.738317 0.5
311 1 0.75 0.689111 0.5
312 1 0.775 0.738317 0.5
313 1 0.8 0.689111 0.5
314 1 0.825 0.738317 0.5
315 1 0.85 0.689111 0.5
316 1 0.875 0.738317 0.5
317 1 0.9 0.689111 0.5
318 1 0.925 0.738317 0.5
319 1 0.95 0.689111 0.5
320 1 0.975 0.738317 0.5
341 1 0.5 0.787515 0.5
342 1 0.525 0.836716 0.5
343 1 0.55 0.787515 0.5
344 1 0.575 0.836716 0.5
345 1 0.6 0.787515 0.5
346 1 0.625 0.836716 0.5
347 1 0.65 0.787515 0.5
348 1 0.675 0.836716 0.5
349 1 0.7 0.787515 0.5
350 1 0.725 0.836716 0.5
351 1 0.75 0.787515 0.5
352 1 0.775 0.836716 0.5
353 1 0.8 0.787515 0.5
354 1 0.825 0.836716 0.5
355 1 0.85 0.787515 0.5
356 1 0.875 0.836716 0.5
357 1 0.9 0.787515 0.5
358 1 0.925 0.836716 0.5
359 1 0.95 0.787515 0.5
360 1 0.975 0.836716 0.5
381 3 0.5 0.885893 0.5
382 3 0.525 0.935079 0.5
383 3 0.55 0.885893 0.5
384 3 0.575 0.935079 0.5
385 3 0.6 0.885893 0.5
386 3 0.625 0.935079 0.5
387 3 0.65 0.885893 0.5
388 3 0.675 0.935079 0.5
389 3 0.7 0.885893 0.5
390 3 0.725 0.935079 0.5
391 3 0.75 0.885893 0.5
392 3 0.775 0.935079 0.5
393 1 0.8 0.885893 0.5
394 1 0.825 0.935079 0.5
395 1 0.85 0.885893 0.5
396 1 0.875 0.935079 0.5
397 1 0.9 0.885893 0.5
398 1 0.925 0.935079 0.5
399 1 0.95 0.885893 0.5
400 1 0.975 0.935079 0.5
411 3 0.5 0.984468 0.5
412 3 0.568544 0.999899 0.5
413 3 0.6 0.984468 0.5
414 3 0.65 0.984468 0.5
415 3 0.7 0.984468 0.5
416 3 0.75 0.984468 0.5
417 1 0.8 0.984468 0.5
418 1 0.85 0.984468 0.5
419 1 0.9 0.984468 0.5
420 1 0.95 0.984468 0.5
ITEM: TIMESTEP
150
ITEM: NUMBER OF ATOMS
420
ITEM: BOX BOUNDS pp ss pp
0.0000000000000000e+00 2.2653923264628304e+01
2.1918578738840608e-01 1.9886544643215430e+01
-2.8317404080785380e-01 2.8317404080785380e-01
ITEM: ATOMS id type xs ys zs
1 2 0 9.97734e-05 0.5
2 2 0.025 0.0490207 0.5
3 2 0.05 9.97734e-05 0.5
4 2 0.075 0.0490207 0.5
5 2 0.1 9.97734e-05 0.5
6 2 0.125 0.0490207 0.5
7 2 0.15 9.97734e-05 0.5
8 2 0.175 0.0490207 0.5
9 2 0.2 9.97734e-05 0.5
10 2 0.225 0.0490207 0.5
11 2 0.25 9.97734e-05 0.5
12 2 0.275 0.0490207 0.5
13 2 0.3 9.97734e-05 0.5
14 2 0.325 0.0490207 0.5
15 2 0.35 9.97734e-05 0.5
16 2 0.375 0.0490207 0.5
17 2 0.4 9.97734e-05 0.5
18 2 0.425 0.0490207 0.5
19 2 0.45 9.97734e-05 0.5
20 2 0.475 0.0490207 0.5
41 2 3.57546e-18 0.0977411 0.5
42 1 0.0250085 0.146478 0.5
43 2 0.05 0.0977411 0.5
44 1 0.0750105 0.146478 0.5
45 2 0.1 0.0977411 0.5
46 1 0.125012 0.14648 0.5
47 2 0.15 0.0977411 0.5
48 1 0.175012 0.146481 0.5
49 2 0.2 0.0977411 0.5
50 1 0.225012 0.146482 0.5
51 2 0.25 0.0977411 0.5
52 1 0.275011 0.146483 0.5
53 2 0.3 0.0977411 0.5
54 1 0.325009 0.146484 0.5
55 2 0.35 0.0977411 0.5
56 1 0.375007 0.146485 0.5
57 2 0.4 0.0977411 0.5
58 1 0.425005 0.146485 0.5
59 2 0.45 0.0977411 0.5
60 1 0.475002 0.146485 0.5
81 1 1.44822e-05 0.195212 0.5
82 1 0.0250253 0.243947 0.5
83 1 0.0500187 0.195214 0.5
84 1 0.0750307 0.243951 0.5
85 1 0.100022 0.195216 0.5
86 1 0.125034 0.243956 0.5
87 1 0.150024 0.195219 0.5
88 1 0.175036 0.243961 0.5
89 1 0.200024 0.195223 0.5
90 1 0.225036 0.243967 0.5
91 1 0.250023 0.195226 0.5
92 1 0.275033 0.243972 0.5
93 1 0.30002 0.195228 0.5
94 1 0.325029 0.243976 0.5
95 1 0.350017 0.19523 0.5
96 1 0.375023 0.243979 0.5
97 1 0.400012 0.195231 0.5
98 1 0.425016 0.24398 0.5
99 1 0.450007 0.195231 0.5
100 1 0.475009 0.243979 0.5
121 1 3.05566e-05 0.292677 0.5
122 1 0.0250453 0.34141 0.5
123 1 0.0500384 0.292681 0.5
124 1 0.0750538 0.341418 0.5
125 1 0.100044 0.292688 0.5
126 1 0.12506 0.341429 0.5
127 1 0.150048 0.292697 0.5
128 1 0.175063 0.341441 0.5
129 1 0.200049 0.292706 0.5
130 1 0.225064 0.341454 0.5
131 1 0.250048 0.292714 0.5
132 1 0.275061 0.341466 0.5
133 1 0.300044 0.292722 0.5
134 1 0.325054 0.341475 0.5
135 1 0.350037 0.292727 0.5
136 1 0.375045 0.341481 0.5
137 1 0.400029 0.29273 0.5
138 1 0.425034 0.341484 0.5
139 1 0.450019 0.29273 0.5
140 1 0.475022 0.341483 0.5
161 1 5.15676e-05 0.390135 0.5
162 1 0.0250712 0.438866 0.5
163 1 0.0500627 0.390143 0.5
164 1 0.0750824 0.43888 0.5
165 1 0.100071 0.390156 0.5
166 1 0.125091 0.438899 0.5
167 1 0.150077 0.390172 0.5
168 1 0.175097 0.43892 0.5
169 1 0.20008 0.390189 0.5
170 1 0.225099 0.438942 0.5
171 1 0.250079 0.390206 0.5
172 1 0.275097 0.438964 0.5
173 1 0.300075 0.390221 0.5
174 1 0.325091 0.438982 0.5
175 1 0.350066 0.390233 0.5
176 1 0.375079 0.438996 0.5
177 1 0.400054 0.39024 0.5
178 1 0.425064 0.439002 0.5
179 1 0.45004 0.390241 0.5
180 1 0.475046 0.439002 0.5
201 1 7.98938e-05 0.487584 0.5
202 1 0.0251038 0.536314 0.5
203 1 0.050093 0.487599 0.5
204 1 0.075116 0.536336 0.5
205 1 0.100104 0.48762 0.5
206 1 0.125127 0.536364 0.5
207 1 0.150112 0.487645 0.5
208 1 0.175135 0.536396 0.5
209 1 0.200118 0.487672 0.5
210 1 0.225141 0.53643 0.5
211 1 0.25012 0.487701 0.5
212 1 0.275144 0.536465 0.5
213 1 0.300117 0.487728 0.5
214 1 0.325141 0.536498 0.5
215 1 0.350109 0.48775 0.5
216 1 0.37513 0.536524 0.5
217 1 0.400094 0.487765 0.5
218 1 0.425111 0.536541 0.5
219 1 0.450075 0.48777 0.5
220 1 0.475086 0.536543 0.5
241 1 0.000115971 0.585026 0.5
242 1 0.025141 0.633758 0.5
243 1 0.050128 0.585048 0.5
244 1 0.0751507 0.633787 0.5
245 1 0.100139 0.585077 0.5
246 1 0.125161 0.633823 0.5
247 1 0.15015 0.585112 0.5
248 1 0.175172 0.633864 0.5
249 1 0.200159 0.585151 0.5
250 1 0.225184 0.633911 0.5
251 1 0.250167 0.585193 0.5
252 1 0.275195 0.633963 0.5
253 1 0.300171 0.585237 0.5
254 1 0.325202 0.634016 0.5
255 1 0.350168 0.585277 0.5
256 1 0.375199 0.634066 0.5
257 1 0.400155 0.585309 0.5
258 1 0.425184 0.634104 0.5
259 1 0.450131 0.585325 0.5
260 1 0.475153 0.63412 0.5
281 1 0.000156775 0.682466 0.5
282 1 0.0251768 0.731202 0.5
283 1 0.0501627 0.682495 0.5
284 1 0.0751791 0.731236 0.5
285 1 0.10017 0.68253 0.5
286 1 0.125186 0.731277 0.5
287 1 0.150181 0.682572 0.5
288 1 0.175197 0.731324 0.5
289 1 0.200194 0.68262 0.5
290 1 0.225214 0.731379 0.5
291 1 0.25021 0.682676 0.5
292 1 0.275235 0.731445 0.5
293 1 0.300225 0.682739 0.5
294 1 0.325258 0.731522 0.5
295 1 0.350237 0.682805 0.5
296 1 0.375276 0.731606 0.5
297 1 0.400237 0.682869 0.5
298 1 0.425281 0.731689 0.5
299 1 0.450217 0.682915 0.5
300 1 0.475257 0.731748 0.5
321 1 0.00019472 0.779911 0.5
322 1 0.0252019 0.828655 0.5
323 1 0.0501891 0.779944 0.5
324 1 0.0751927 0.828689 0.5
325 1 0.100189 0.779982 0.5
326 1 0.125191 0.828729 0.5
327 1 0.150195 0.780026 0.5
328 1 0.175198 0.828776 0.5
329 1 0.200209 0.780078 0.5
330 1 0.225214 0.828833 0.5
331 1 0.25023 0.780141 0.5
332 1 0.27524 0.828904 0.5
333 1 0.300258 0.780218 0.5
334 1 0.325276 0.828995 0.5
335 1 0.35029 0.780312 0.5
336 1 0.37532 0.829111 0.5
337 1 0.40032 0.780421 0.5
338 1 0.425365 0.829255 0.5
339 1 0.450333 0.780535 0.5
340 1 0.475394 0.82942 0.5
361 1 0.000218326 0.877371 0.5
362 1 0.0252061 0.926124 0.5
363 1 0.0501983 0.877402 0.5
364 1 0.0751845 0.926154 0.5
365 1 0.100187 0.877437 0.5
366 1 0.125172 0.926189 0.5
367 1 0.150185 0.877478 0.5
368 1 0.175169 0.92623 0.5
369 1 0.200193 0.877527 0.5
370 1 0.225176 0.926282 0.5
371 1 0.25021 0.877589 0.5
372 1 0.275193 0.926349 0.5
373 1 0.30024 0.877669 0.5
374 1 0.325222 0.92644 0.5
375 1 0.350282 0.877776 0.5
376 1 0.375269 0.926564 0.5
377 1 0.400338 0.87792 0.5
378 1 0.42534 0.926739 0.5
379 3 0.450402 0.878114 0.5
380 3 0.475453 0.927076 0.5
401 1 0.000215817 0.975057 0.5
402 1 0.0501836 0.975082 0.5
403 1 0.100162 0.975111 0.5
404 1 0.150149 0.975146 0.5
405 1 0.200143 0.975189 0.5
406 1 0.250145 0.975245 0.5
407 1 0.300157 0.975319 0.5
408 1 0.35018 0.975421 0.5
409 1 0.400221 0.975562 0.5
410 3 0.450296 0.975769 0.5
101 1 0.500003 0.19523 0.5
141 1 0.50001 0.292728 0.5
181 1 0.500025 0.390237 0.5
221 1 0.500052 0.487765 0.5
261 1 0.500099 0.585323 0.5
21 2 0.5 9.97734e-05 0.5
22 2 0.525 0.0490207 0.5
23 2 0.55 9.97734e-05 0.5
24 2 0.575 0.0490207 0.5
25 2 0.6 9.97734e-05 0.5
26 2 0.625 0.0490207 0.5
27 2 0.65 9.97734e-05 0.5
28 2 0.675 0.0490207 0.5
29 2 0.7 9.97734e-05 0.5
30 2 0.725 0.0490207 0.5
31 2 0.75 9.97734e-05 0.5
32 2 0.775 0.0490207 0.5
33 2 0.8 9.97734e-05 0.5
34 2 0.825 0.0490207 0.5
35 2 0.85 9.97734e-05 0.5
36 2 0.875 0.0490207 0.5
37 2 0.9 9.97734e-05 0.5
38 2 0.925 0.0490207 0.5
39 2 0.95 9.97734e-05 0.5
40 2 0.975 0.0490207 0.5
61 2 0.5 0.0977411 0.5
62 1 0.525 0.146484 0.5
63 2 0.55 0.0977411 0.5
64 1 0.574998 0.146483 0.5
65 2 0.6 0.0977411 0.5
66 1 0.624997 0.146482 0.5
67 2 0.65 0.0977411 0.5
68 1 0.674996 0.146481 0.5
69 2 0.7 0.0977411 0.5
70 1 0.724996 0.14648 0.5
71 2 0.75 0.0977411 0.5
72 1 0.774997 0.146479 0.5
73 2 0.8 0.0977411 0.5
74 1 0.824999 0.146478 0.5
75 2 0.85 0.0977411 0.5
76 1 0.875001 0.146477 0.5
77 2 0.9 0.0977411 0.5
78 1 0.925003 0.146477 0.5
79 2 0.95 0.0977411 0.5
80 1 0.975006 0.146477 0.5
417 1 0.800515 0.975002 0.5
102 1 0.525002 0.243976 0.5
103 1 0.549998 0.195229 0.5
104 1 0.574997 0.243973 0.5
105 1 0.599995 0.195226 0.5
106 1 0.624993 0.243968 0.5
107 1 0.649993 0.195224 0.5
108 1 0.674991 0.243963 0.5
109 1 0.699993 0.195221 0.5
110 1 0.724991 0.243958 0.5
111 1 0.749994 0.195218 0.5
112 1 0.774994 0.243953 0.5
113 1 0.799997 0.195215 0.5
114 1 0.824999 0.243949 0.5
115 1 0.85 0.195213 0.5
116 1 0.875005 0.243946 0.5
117 1 0.900005 0.195212 0.5
118 1 0.925012 0.243944 0.5
119 1 0.95001 0.195211 0.5
120 1 0.975019 0.243945 0.5
416 3 0.75067 0.975018 0.5
142 1 0.52501 0.341478 0.5
143 1 0.550001 0.292723 0.5
144 1 0.575 0.34147 0.5
145 1 0.599995 0.292717 0.5
146 1 0.624993 0.341459 0.5
147 1 0.649991 0.292709 0.5
148 1 0.67499 0.341448 0.5
149 1 0.69999 0.292701 0.5
150 1 0.72499 0.341436 0.5
151 1 0.749992 0.292693 0.5
152 1 0.774995 0.341424 0.5
153 1 0.799997 0.292685 0.5
154 1 0.825002 0.341414 0.5
155 1 0.850004 0.29268 0.5
156 1 0.875012 0.341407 0.5
157 1 0.900012 0.292676 0.5
158 1 0.925024 0.341404 0.5
159 1 0.950022 0.292675 0.5
160 1 0.975035 0.341405 0.5
415 3 0.700905 0.975094 0.5
182 1 0.525028 0.438993 0.5
183 1 0.550011 0.390229 0.5
184 1 0.575011 0.438979 0.5
185 1 0.6 0.390216 0.5
186 1 0.625 0.438959 0.5
187 1 0.649993 0.3902 0.5
188 1 0.674994 0.438937 0.5
189 1 0.699991 0.390183 0.5
190 1 0.724994 0.438914 0.5
191 1 0.749994 0.390166 0.5
192 1 0.775001 0.438891 0.5
193 1 0.800001 0.390151 0.5
194 1 0.825013 0.438873 0.5
195 1 0.850012 0.39014 0.5
196 1 0.875027 0.438861 0.5
197 1 0.900025 0.390132 0.5
198 1 0.925043 0.438855 0.5
199 1 0.950039 0.390131 0.5
200 1 0.975058 0.438857 0.5
414 3 0.651254 0.97531 0.5
222 1 0.525059 0.536532 0.5
223 1 0.55003 0.487751 0.5
224 1 0.575033 0.536508 0.5
225 1 0.600012 0.487728 0.5
226 1 0.625014 0.536474 0.5
227 1 0.650001 0.4877 0.5
228 1 0.675005 0.536433 0.5
229 1 0.699997 0.487668 0.5
230 1 0.725007 0.53639 0.5
231 1 0.750002 0.487637 0.5
232 1 0.775018 0.536351 0.5
233 1 0.800014 0.48761 0.5
234 1 0.825035 0.536321 0.5
235 1 0.85003 0.48759 0.5
236 1 0.875055 0.536302 0.5
237 1 0.900048 0.487579 0.5
238 1 0.925073 0.536295 0.5
239 1 0.950065 0.487577 0.5
240 1 0.97509 0.5363 0.5
413 3 0.601792 0.97585 0.5
262 1 0.525112 0.634109 0.5
263 1 0.550065 0.585301 0.5
264 1 0.575071 0.63407 0.5
265 1 0.600036 0.585262 0.5
266 1 0.625042 0.634009 0.5
267 1 0.650019 0.585212 0.5
268 1 0.67503 0.633935 0.5
269 1 0.700015 0.585155 0.5
270 1 0.725038 0.63386 0.5
271 1 0.750025 0.5851 0.5
272 1 0.775059 0.633795 0.5
273 1 0.800044 0.585055 0.5
274 1 0.825082 0.633751 0.5
275 1 0.850066 0.585026 0.5
276 1 0.875103 0.633729 0.5
277 1 0.900085 0.585012 0.5
278 1 0.925119 0.633726 0.5
279 1 0.950102 0.585014 0.5
280 1 0.975131 0.633737 0.5
420 1 0.950261 0.975036 0.5
302 1 0.525202 0.731752 0.5
303 1 0.550125 0.6829 0.5
304 1 0.575136 0.731692 0.5
305 1 0.600078 0.682833 0.5
306 1 0.625091 0.731577 0.5
307 1 0.650054 0.682739 0.5
308 1 0.675085 0.731434 0.5
309 1 0.700057 0.682635 0.5
310 1 0.725116 0.731297 0.5
311 1 0.750081 0.682541 0.5
312 1 0.775147 0.731208 0.5
313 1 0.800108 0.682478 0.5
314 1 0.825167 0.731163 0.5
315 1 0.850129 0.682446 0.5
316 1 0.875176 0.731149 0.5
317 1 0.900142 0.682437 0.5
318 1 0.925178 0.731155 0.5
319 1 0.950151 0.682446 0.5
320 1 0.975177 0.731174 0.5
419 1 0.900322 0.975018 0.5
342 1 0.525356 0.829523 0.5
343 1 0.550226 0.780592 0.5
344 1 0.575251 0.829436 0.5
345 1 0.60015 0.780467 0.5
346 1 0.625184 0.829188 0.5
347 1 0.650126 0.780274 0.5
348 1 0.675256 0.828849 0.5
349 1 0.700169 0.780065 0.5
350 1 0.725298 0.828674 0.5
351 1 0.750207 0.77994 0.5
352 1 0.775305 0.8286 0.5
353 1 0.800223 0.779881 0.5
354 1 0.825289 0.828578 0.5
355 1 0.850223 0.779862 0.5
356 1 0.875265 0.828582 0.5
357 1 0.900215 0.779867 0.5
358 1 0.92524 0.828599 0.5
359 1 0.950204 0.779885 0.5
360 1 0.975218 0.828624 0.5
418 1 0.850404 0.975007 0.5
382 3 0.525581 0.927547 0.5
383 3 0.550426 0.8785 0.5
384 3 0.575477 0.927817 0.5
385 3 0.600275 0.878254 0.5
386 3 0.625771 0.926527 0.5
387 3 0.650414 0.877654 0.5
388 3 0.675711 0.926195 0.5
389 3 0.700444 0.877414 0.5
390 3 0.725602 0.92607 0.5
391 3 0.75042 0.877321 0.5
392 3 0.775497 0.926037 0.5
393 1 0.800378 0.8773 0.5
394 1 0.825412 0.92604 0.5
395 1 0.85033 0.877304 0.5
396 1 0.87534 0.926053 0.5
397 1 0.900285 0.87732 0.5
398 1 0.925282 0.926073 0.5
399 1 0.950247 0.877343 0.5
400 1 0.975238 0.926097 0.5
411 3 0.500685 0.97648 0.5
412 3 0.55859 1.00327 0.5
301 1 0.500177 0.682929 0.5
381 3 0.500456 0.878372 0.5
341 1 0.500304 0.780612 0.5
ITEM: TIMESTEP
182
ITEM: NUMBER OF ATOMS
420
ITEM: BOX BOUNDS pp ss pp
0.0000000000000000e+00 2.2653923264628304e+01
2.1918578738840608e-01 1.9952900566257767e+01
-2.8317404080785380e-01 2.8317404080785380e-01
ITEM: ATOMS id type xs ys zs
1 2 0 9.94379e-05 0.5
2 2 0.025 0.0488559 0.5
3 2 0.05 9.94379e-05 0.5
4 2 0.075 0.0488559 0.5
5 2 0.1 9.94379e-05 0.5
6 2 0.125 0.0488559 0.5
7 2 0.15 9.94379e-05 0.5
8 2 0.175 0.0488559 0.5
9 2 0.2 9.94379e-05 0.5
10 2 0.225 0.0488559 0.5
11 2 0.25 9.94379e-05 0.5
12 2 0.275 0.0488559 0.5
13 2 0.3 9.94379e-05 0.5
14 2 0.325 0.0488559 0.5
15 2 0.35 9.94379e-05 0.5
16 2 0.375 0.0488559 0.5
17 2 0.4 9.94379e-05 0.5
18 2 0.425 0.0488559 0.5
19 2 0.45 9.94379e-05 0.5
20 2 0.475 0.0488559 0.5
41 2 3.57546e-18 0.0974124 0.5
42 1 0.025011 0.145987 0.5
43 2 0.05 0.0974124 0.5
44 1 0.0750134 0.145988 0.5
45 2 0.1 0.0974124 0.5
46 1 0.125015 0.145989 0.5
47 2 0.15 0.0974124 0.5
48 1 0.175016 0.14599 0.5
49 2 0.2 0.0974124 0.5
50 1 0.225016 0.145991 0.5
51 2 0.25 0.0974124 0.5
52 1 0.275015 0.145993 0.5
53 2 0.3 0.0974124 0.5
54 1 0.325013 0.145994 0.5
55 2 0.35 0.0974124 0.5
56 1 0.375011 0.145994 0.5
57 2 0.4 0.0974124 0.5
58 1 0.425008 0.145995 0.5
59 2 0.45 0.0974124 0.5
60 1 0.475005 0.145994 0.5
81 1 1.91771e-05 0.194558 0.5
82 1 0.0250329 0.24313 0.5
83 1 0.0500242 0.19456 0.5
84 1 0.0750394 0.243134 0.5
85 1 0.100028 0.194563 0.5
86 1 0.125044 0.243139 0.5
87 1 0.150031 0.194566 0.5
88 1 0.175047 0.243145 0.5
89 1 0.200032 0.194569 0.5
90 1 0.225047 0.243151 0.5
91 1 0.250031 0.194573 0.5
92 1 0.275045 0.243157 0.5
93 1 0.300028 0.194576 0.5
94 1 0.32504 0.243162 0.5
95 1 0.350024 0.194578 0.5
96 1 0.375033 0.243165 0.5
97 1 0.400019 0.194579 0.5
98 1 0.425026 0.243166 0.5
99 1 0.450013 0.194579 0.5
100 1 0.475017 0.243166 0.5
121 1 4.00098e-05 0.291697 0.5
122 1 0.0250579 0.340267 0.5
123 1 0.0500493 0.291702 0.5
124 1 0.0750682 0.340275 0.5
125 1 0.100057 0.291709 0.5
126 1 0.125076 0.340286 0.5
127 1 0.150062 0.291718 0.5
128 1 0.175081 0.340299 0.5
129 1 0.200064 0.291727 0.5
130 1 0.225082 0.340313 0.5
131 1 0.250062 0.291737 0.5
132 1 0.275079 0.340326 0.5
133 1 0.300058 0.291745 0.5
134 1 0.325072 0.340337 0.5
135 1 0.350051 0.291751 0.5
136 1 0.375062 0.340344 0.5
137 1 0.400042 0.291755 0.5
138 1 0.42505 0.340348 0.5
139 1 0.450031 0.291756 0.5
140 1 0.475036 0.340347 0.5
161 1 6.57055e-05 0.388828 0.5
162 1 0.0250886 0.437395 0.5
163 1 0.0500788 0.388837 0.5
164 1 0.075102 0.437409 0.5
165 1 0.100089 0.38885 0.5
166 1 0.125113 0.437429 0.5
167 1 0.150097 0.388867 0.5
168 1 0.17512 0.437451 0.5
169 1 0.200101 0.388885 0.5
170 1 0.225123 0.437476 0.5
171 1 0.250101 0.388904 0.5
172 1 0.275121 0.437499 0.5
173 1 0.300096 0.38892 0.5
174 1 0.325114 0.43752 0.5
175 1 0.350087 0.388933 0.5
176 1 0.375102 0.437535 0.5
177 1 0.400073 0.388942 0.5
178 1 0.425085 0.437544 0.5
179 1 0.450058 0.388944 0.5
180 1 0.475065 0.437544 0.5
201 1 9.84555e-05 0.485949 0.5
202 1 0.0251256 0.534515 0.5
203 1 0.0501138 0.485964 0.5
204 1 0.07514 0.534537 0.5
205 1 0.100127 0.485985 0.5
206 1 0.125152 0.534565 0.5
207 1 0.150137 0.486011 0.5
208 1 0.175163 0.534599 0.5
209 1 0.200144 0.486041 0.5
210 1 0.22517 0.534636 0.5
211 1 0.250147 0.486072 0.5
212 1 0.275172 0.534675 0.5
213 1 0.300144 0.486101 0.5
214 1 0.325169 0.534711 0.5
215 1 0.350135 0.486126 0.5
216 1 0.375157 0.534741 0.5
217 1 0.400119 0.486144 0.5
218 1 0.425137 0.534759 0.5
219 1 0.450097 0.486151 0.5
220 1 0.47511 0.534764 0.5
241 1 0.000138462 0.583063 0.5
242 1 0.0251663 0.631629 0.5
243 1 0.0501527 0.583084 0.5
244 1 0.0751778 0.631658 0.5
245 1 0.100166 0.583113 0.5
246 1 0.12519 0.631695 0.5
247 1 0.150178 0.58315 0.5
248 1 0.175202 0.63174 0.5
249 1 0.200188 0.583192 0.5
250 1 0.225214 0.63179 0.5
251 1 0.250197 0.583238 0.5
252 1 0.275225 0.631846 0.5
253 1 0.3002 0.583285 0.5
254 1 0.325231 0.631903 0.5
255 1 0.350196 0.583329 0.5
256 1 0.375228 0.631958 0.5
257 1 0.400182 0.583364 0.5
258 1 0.425211 0.632 0.5
259 1 0.450157 0.583384 0.5
260 1 0.475178 0.632019 0.5
281 1 0.000182471 0.680173 0.5
282 1 0.0252044 0.728743 0.5
283 1 0.05019 0.680201 0.5
284 1 0.0752077 0.728778 0.5
285 1 0.100199 0.680237 0.5
286 1 0.125215 0.72882 0.5
287 1 0.15021 0.680281 0.5
288 1 0.175227 0.728871 0.5
289 1 0.200224 0.680333 0.5
290 1 0.225243 0.728931 0.5
291 1 0.25024 0.680394 0.5
292 1 0.275263 0.729002 0.5
293 1 0.300255 0.680461 0.5
294 1 0.325285 0.729083 0.5
295 1 0.350265 0.680532 0.5
296 1 0.375302 0.729172 0.5
297 1 0.400264 0.6806 0.5
298 1 0.425306 0.72926 0.5
299 1 0.450243 0.68065 0.5
300 1 0.475281 0.729322 0.5
321 1 0.00022276 0.777288 0.5
322 1 0.0252308 0.825866 0.5
323 1 0.0502177 0.77732 0.5
324 1 0.0752212 0.825902 0.5
325 1 0.100218 0.77736 0.5
326 1 0.125219 0.825944 0.5
327 1 0.150224 0.777407 0.5
328 1 0.175225 0.825995 0.5
329 1 0.200237 0.777463 0.5
330 1 0.225239 0.826058 0.5
331 1 0.250257 0.777532 0.5
332 1 0.275263 0.826134 0.5
333 1 0.300284 0.777614 0.5
334 1 0.325297 0.826231 0.5
335 1 0.350314 0.777713 0.5
336 1 0.37534 0.826351 0.5
337 1 0.400343 0.777827 0.5
338 1 0.425384 0.826499 0.5
339 1 0.450355 0.777944 0.5
340 1 0.475413 0.826667 0.5
361 1 0.000247883 0.874419 0.5
362 1 0.0252351 0.923007 0.5
363 1 0.0502268 0.87445 0.5
364 1 0.0752111 0.923039 0.5
365 1 0.100214 0.874487 0.5
366 1 0.125196 0.923077 0.5
367 1 0.15021 0.874532 0.5
368 1 0.175191 0.923123 0.5
369 1 0.200216 0.874586 0.5
370 1 0.225194 0.923181 0.5
371 1 0.250231 0.874653 0.5
372 1 0.275208 0.923254 0.5
373 1 0.300258 0.874739 0.5
374 1 0.325236 0.923349 0.5
375 1 0.350299 0.874851 0.5
376 1 0.37528 0.923478 0.5
377 1 0.400353 0.874998 0.5
378 1 0.42535 0.923656 0.5
379 3 0.450416 0.875195 0.5
380 3 0.475463 0.923994 0.5
401 1 0.000246331 0.971777 0.5
402 1 0.0502106 0.971803 0.5
403 1 0.100185 0.971834 0.5
404 1 0.150168 0.971873 0.5
405 1 0.200159 0.971922 0.5
406 1 0.250158 0.971983 0.5
407 1 0.300167 0.972063 0.5
408 1 0.350188 0.972169 0.5
409 1 0.400228 0.972314 0.5
410 3 0.450301 0.972522 0.5
21 2 0.5 9.94379e-05 0.5
22 2 0.525 0.0488559 0.5
23 2 0.55 9.94379e-05 0.5
24 2 0.575 0.0488559 0.5
25 2 0.6 9.94379e-05 0.5
26 2 0.625 0.0488559 0.5
27 2 0.65 9.94379e-05 0.5
28 2 0.675 0.0488559 0.5
29 2 0.7 9.94379e-05 0.5
30 2 0.725 0.0488559 0.5
31 2 0.75 9.94379e-05 0.5
32 2 0.775 0.0488559 0.5
33 2 0.8 9.94379e-05 0.5
34 2 0.825 0.0488559 0.5
35 2 0.85 9.94379e-05 0.5
36 2 0.875 0.0488559 0.5
37 2 0.9 9.94379e-05 0.5
38 2 0.925 0.0488559 0.5
39 2 0.95 9.94379e-05 0.5
40 2 0.975 0.0488559 0.5
61 2 0.5 0.0974124 0.5
62 1 0.525002 0.145994 0.5
63 2 0.55 0.0974124 0.5
64 1 0.575 0.145993 0.5
65 2 0.6 0.0974124 0.5
66 1 0.624998 0.145992 0.5
67 2 0.65 0.0974124 0.5
68 1 0.674997 0.145991 0.5
69 2 0.7 0.0974124 0.5
70 1 0.724997 0.14599 0.5
71 2 0.75 0.0974124 0.5
72 1 0.774998 0.145988 0.5
73 2 0.8 0.0974124 0.5
74 1 0.825 0.145987 0.5
75 2 0.85 0.0974124 0.5
76 1 0.875002 0.145987 0.5
77 2 0.9 0.0974124 0.5
78 1 0.925005 0.145986 0.5
79 2 0.95 0.0974124 0.5
80 1 0.975008 0.145986 0.5
417 1 0.800549 0.971739 0.5
102 1 0.52501 0.243163 0.5
103 1 0.550003 0.194577 0.5
104 1 0.575003 0.24316 0.5
105 1 0.599999 0.194574 0.5
106 1 0.624998 0.243155 0.5
107 1 0.649997 0.194572 0.5
108 1 0.674996 0.24315 0.5
109 1 0.699996 0.194569 0.5
110 1 0.724995 0.243144 0.5
111 1 0.749997 0.194565 0.5
112 1 0.774998 0.243138 0.5
113 1 0.799999 0.194563 0.5
114 1 0.825003 0.243134 0.5
115 1 0.850003 0.19456 0.5
116 1 0.875009 0.24313 0.5
117 1 0.900008 0.194559 0.5
118 1 0.925017 0.243128 0.5
119 1 0.950014 0.194558 0.5
120 1 0.975025 0.243128 0.5
416 3 0.750702 0.971761 0.5
142 1 0.525023 0.340343 0.5
143 1 0.550011 0.291749 0.5
144 1 0.575011 0.340335 0.5
145 1 0.600003 0.291743 0.5
146 1 0.625003 0.340324 0.5
147 1 0.649998 0.291735 0.5
148 1 0.674998 0.340311 0.5
149 1 0.699996 0.291726 0.5
150 1 0.724998 0.340298 0.5
151 1 0.749997 0.291717 0.5