ITEM: TIMESTEP
0
ITEM: NUMBER OF ATOMS
420
ITEM: BOX BOUNDS pp ss pp
0.0000000000000000e+00 2.2653923264628304e+01
2.1918578738840608e-01 2.0301548638860133e+01
-2.8317404080785380e-01 2.8317404080785380e-01
ITEM: ATOMS id type xs ys zs
1 2 0 9.77116e-05 0.5
2 2 0.025 0.0480077 0.5
3 2 0.05 9.77116e-05 0.5
4 2 0.075 0.0480077 0.5
5 2 0.1 9.77116e-05 0.5
6 2 0.125 0.0480077 0.5
7 2 0.15 9.77116e-05 0.5
8 2 0.175 0.0480077 0.5
9 2 0.2 9.77116e-05 0.5
10 2 0.225 0.0480077 0.5
11 2 0.25 9.77116e-05 0.5
12 2 0.275 0.0480077 0.5
13 2 0.3 9.77116e-05 0.5
14 2 0.325 0.0480077 0.5
15 2 0.35 9.77116e-05 0.5
16 2 0.375 0.0480077 0.5
17 2 0.4 9.77116e-05 0.5
18 2 0.425 0.0480077 0.5
19 2 0.45 9.77116e-05 0.5
20 2 0.475 0.0480077 0.5
41 2 3.57546e-18 0.0957212 0.5
42 1 0.025 0.143427 0.5
43 2 0.05 0.0957212 0.5
44 1 0.075 0.143427 0.5
45 2 0.1 0.0957212 0.5
46 1 0.125 0.143427 0.5
47 2 0.15 0.0957212 0.5
48 1 0.175 0.143427 0.5
49 2 0.2 0.0957212 0.5
50 1 0.225 0.143427 0.5
51 2 0.25 0.0957212 0.5
52 1 0.275 0.143427 0.5
53 2 0.3 0.0957212 0.5
54 1 0.325 0.143427 0.5
55 2 0.35 0.0957212 0.5
56 1 0.375 0.143427 0.5
57 2 0.4 0.0957212 0.5
58 1 0.425 0.143427 0.5
59 2 0.45 0.0957212 0.5
60 1 0.475 0.143427 0.5
81 1 2.74429e-20 0.191154 0.5
82 1 0.025 0.238879 0.5
83 1 0.05 0.191154 0.5
84 1 0.075 0.238879 0.5
85 1 0.1 0.191154 0.5
86 1 0.125 0.238879 0.5
87 1 0.15 0.191154 0.5
88 1 0.175 0.238879 0.5
89 1 0.2 0.191154 0.5
90 1 0.225 0.238879 0.5
91 1 0.25 0.191154 0.5
92 1 0.275 0.238879 0.5
93 1 0.3 0.191154 0.5
94 1 0.325 0.238879 0.5
95 1 0.35 0.191154 0.5
96 1 0.375 0.238879 0.5
97 1 0.4 0.191154 0.5
98 1 0.425 0.238879 0.5
99 1 0.45 0.191154 0.5
100 1 0.475 0.238879 0.5
121 1 0 0.286612 0.5
122 1 0.025 0.334349 0.5
123 1 0.05 0.286612 0.5
124 1 0.075 0.334349 0.5
125 1 0.1 0.286612 0.5
126 1 0.125 0.334349 0.5
127 1 0.15 0.286612 0.5
128 1 0.175 0.334349 0.5
129 1 0.2 0.286612 0.5
130 1 0.225 0.334349 0.5
131 1 0.25 0.286612 0.5
132 1 0.275 0.334349 0.5
133 1 0.3 0.286612 0.5
134 1 0.325 0.334349 0.5
135 1 0.35 0.286612 0.5
136 1 0.375 0.334349 0.5
137 1 0.4 0.286612 0.5
138 1 0.425 0.334349 0.5
139 1 0.45 0.286612 0.5
140 1 0.475 0.334349 0.5
161 1 0 0.38208 0.5
162 1 0.025 0.429812 0.5
163 1 0.05 0.38208 0.5
164 1 0.075 0.429812 0.5
165 1 0.1 0.38208 0.5
166 1 0.125 0.429812 0.5
167 1 0.15 0.38208 0.5
168 1 0.175 0.429812 0.5
169 1 0.2 0.38208 0.5
170 1 0.225 0.429812 0.5
171 1 0.25 0.38208 0.5
172 1 0.275 0.429812 0.5
173 1 0.3 0.38208 0.5
174 1 0.325 0.429812 0.5
175 1 0.35 0.38208 0.5
176 1 0.375 0.429812 0.5
177 1 0.4 0.38208 0.5
178 1 0.425 0.429812 0.5
179 1 0.45 0.38208 0.5
180 1 0.475 0.429812 0.5
201 1 0 0.477546 0.5
202 1 0.025 0.52528 0.5
203 1 0.05 0.477546 0.5
204 1 0.075 0.52528 0.5
205 1 0.1 0.477546 0.5
206 1 0.125 0.52528 0.5
207 1 0.15 0.477546 0.5
208 1 0.175 0.52528 0.5
209 1 0.2 0.477546 0.5
210 1 0.225 0.52528 0.5
211 1 0.25 0.477546 0.5
212 1 0.275 0.52528 0.5
213 1 0.3 0.477546 0.5
214 1 0.325 0.52528 0.5
215 1 0.35 0.477546 0.5
216 1 0.375 0.52528 0.5
217 1 0.4 0.477546 0.5
218 1 0.425 0.52528 0.5
219 1 0.45 0.477546 0.5
220 1 0.475 0.52528 0.5
241 1 0 0.573012 0.5
242 1 0.025 0.620743 0.5
243 1 0.05 0.573012 0.5
244 1 0.075 0.620743 0.5
245 1 0.1 0.573012 0.5
246 1 0.125 0.620743 0.5
247 1 0.15 0.573012 0.5
248 1 0.175 0.620743 0.5
249 1 0.2 0.573012 0.5
250 1 0.225 0.620743 0.5
251 1 0.25 0.573012 0.5
252 1 0.275 0.620743 0.5
253 1 0.3 0.573012 0.5
254 1 0.325 0.620743 0.5
255 1 0.35 0.573012 0.5
256 1 0.375 0.620743 0.5
257 1 0.4 0.573012 0.5
258 1 0.425 0.620743 0.5
259 1 0.45 0.573012 0.5
260 1 0.475 0.620743 0.5
281 1 2.18851e-18 0.66848 0.5
282 1 0.025 0.716212 0.5
283 1 0.05 0.66848 0.5
284 1 0.075 0.716212 0.5
285 1 0.1 0.66848 0.5
286 1 0.125 0.716212 0.5
287 1 0.15 0.66848 0.5
288 1 0.175 0.716212 0.5
289 1 0.2 0.66848 0.5
290 1 0.225 0.716212 0.5
291 1 0.25 0.66848 0.5
292 1 0.275 0.716212 0.5
293 1 0.3 0.66848 0.5
294 1 0.325 0.716212 0.5
295 1 0.35 0.66848 0.5
296 1 0.375 0.716212 0.5
297 1 0.4 0.66848 0.5
298 1 0.425 0.716212 0.5
299 1 0.45 0.66848 0.5
300 1 0.475 0.716212 0.5
321 1 0 0.763938 0.5
322 1 0.025 0.811665 0.5
323 1 0.05 0.763938 0.5
324 1 0.075 0.811665 0.5
325 1 0.1 0.763938 0.5
326 1 0.125 0.811665 0.5
327 1 0.15 0.763938 0.5
328 1 0.175 0.811665 0.5
329 1 0.2 0.763938 0.5
330 1 0.225 0.811665 0.5
331 1 0.25 0.763938 0.5
332 1 0.275 0.811665 0.5
333 1 0.3 0.763938 0.5
334 1 0.325 0.811665 0.5
335 1 0.35 0.763938 0.5
336 1 0.375 0.811665 0.5
337 1 0.4 0.763938 0.5
338 1 0.425 0.811665 0.5
339 1 0.45 0.763938 0.5
340 1 0.475 0.811665 0.5
361 1 5.74281e-19 0.859371 0.5
362 1 0.025 0.907084 0.5
363 1 0.05 0.859371 0.5
364 1 0.075 0.907084 0.5
365 1 0.1 0.859371 0.5
366 1 0.125 0.907084 0.5
367 1 0.15 0.859371 0.5
368 1 0.175 0.907084 0.5
369 1 0.2 0.859371 0.5
370 1 0.225 0.907084 0.5
371 1 0.25 0.859371 0.5
372 1 0.275 0.907084 0.5
373 1 0.3 0.859371 0.5
374 1 0.325 0.907084 0.5
375 1 0.35 0.859371 0.5
376 1 0.375 0.907084 0.5
377 1 0.4 0.859371 0.5
378 1 0.425 0.907084 0.5
379 3 0.45 0.859371 0.5
380 3 0.475 0.907084 0.5
401 1 3.60804e-19 0.954994 0.5
402 1 0.05 0.954994 0.5
403 1 0.1 0.954994 0.5
404 1 0.15 0.954994 0.5
405 1 0.2 0.954994 0.5
406 1 0.25 0.954994 0.5
407 1 0.3 0.954994 0.5
408 1 0.35 0.954994 0.5
409 1 0.4 0.954994 0.5
410 3 0.45 0.954994 0.5
21 2 0.5 9.77116e-05 0.5
22 2 0.525 0.0480077 0.5
23 2 0.55 9.77116e-05 0.5
24 2 0.575 0.0480077 0.5
25 2 0.6 9.77116e-05 0.5
26 2 0.625 0.0480077 0.5
27 2 0.65 9.77116e-05 0.5
28 2 0.675 0.0480077 0.5
29 2 0.7 9.77116e-05 0.5
30 2 0.725 0.0480077 0.5
31 2 0.75 9.77116e-05 0.5
32 2 0.775 0.0480077 0.5
33 2 0.8 9.77116e-05 0.5
34 2 0.825 0.0480077 0.5
35 2 0.85 9.77116e-05 0.5
36 2 0.875 0.0480077 0.5
37 2 0.9 9.77116e-05 0.5
38 2 0.925 0.0480077 0.5
39 2 0.95 9.77116e-05 0.5
40 2 0.975 0.0480077 0.5
61 2 0.5 0.0957212 0.5
62 1 0.525 0.143427 0.5
63 2 0.55 0.0957212 0.5
64 1 0.575 0.143427 0.5
65 2 0.6 0.0957212 0.5
66 1 0.625 0.143427 0.5
67 2 0.65 0.0957212 0.5
68 1 0.675 0.143427 0.5
69 2 0.7 0.0957212 0.5
70 1 0.725 0.143427 0.5
71 2 0.75 0.0957212 0.5
72 1 0.775 0.143427 0.5
73 2 0.8 0.0957212 0.5
74 1 0.825 0.143427 0.5
75 2 0.85 0.0957212 0.5
76 1 0.875 0.143427 0.5
77 2 0.9 0.0957212 0.5
78 1 0.925 0.143427 0.5
79 2 0.95 0.0957212 0.5
80 1 0.975 0.143427 0.5
101 1 0.5 0.191154 0.5
102 1 0.525 0.238879 0.5
103 1 0.55 0.191154 0.5
104 1 0.575 0.238879 0.5
105 1 0.6 0.191154 0.5
106 1 0.625 0.238879 0.5
107 1 0.65 0.191154 0.5
108 1 0.675 0.238879 0.5
109 1 0.7 0.191154 0.5
110 1 0.725 0.238879 0.5
111 1 0.75 0.191154 0.5
112 1 0.775 0.238879 0.5
113 1 0.8 0.191154 0.5
114 1 0.825 0.238879 0.5
115 1 0.85 0.191154 0.5
116 1 0.875 0.238879 0.5
117 1 0.9 0.191154 0.5
118 1 0.925 0.238879 0.5
119 1 0.95 0.191154 0.5
120 1 0.975 0.238879 0.5
141 1 0.5 0.286612 0.5
142 1 0.525 0.334349 0.5
143 1 0.55 0.286612 0.5
144 1 0.575 0.334349 0.5
145 1 0.6 0.286612 0.5
146 1 0.625 0.334349 0.5
147 1 0.65 0.286612 0.5
148 1 0.675 0.334349 0.5
149 1 0.7 0.286612 0.5
150 1 0.725 0.334349 0.5
151 1 0.75 0.286612 0.5
152 1 0.775 0.334349 0.5
153 1 0.8 0.286612 0.5
154 1 0.825 0.334349 0.5
155 1 0.85 0.286612 0.5
156 1 0.875 0.334349 0.5
157 1 0.9 0.286612 0.5
158 1 0.925 0.334349 0.5
159 1 0.95 0.286612 0.5
160 1 0.975 0.334349 0.5
181 1 0.5 0.38208 0.5
182 1 0.525 0.429812 0.5
183 1 0.55 0.38208 0.5
184 1 0.575 0.429812 0.5
185 1 0.6 0.38208 0.5
186 1 0.625 0.429812 0.5
187 1 0.65 0.38208 0.5
188 1 0.675 0.429812 0.5
189 1 0.7 0.38208 0.5
190 1 0.725 0.429812 0.5
191 1 0.75 0.38208 0.5
192 1 0.775 0.429812 0.5
193 1 0.8 0.38208 0.5
194 1 0.825 0.429812 0.5
195 1 0.85 0.38208 0.5
196 1 0.875 0.429812 0.5
197 1 0.9 0.38208 0.5
198 1 0.925 0.429812 0.5
199 1 0.95 0.38208 0.5
200 1 0.975 0.429812 0.5
221 1 0.5 0.477546 0.5
222 1 0.525 0.52528 0.5
223 1 0.55 0.477546 0.5
224 1 0.575 0.52528 0.5
225 1 0.6 0.477546 0.5
226 1 0.625 0.52528 0.5
227 1 0.65 0.477546 0.5
228 1 0.675 0.52528 0.5
229 1 0.7 0.477546 0.5
230 1 0.725 0.52528 0.5
231 1 0.75 0.477546 0.5
232 1 0.775 0.52528 0.5
233 1 0.8 0.477546 0.5
234 1 0.825 0.52528 0.5
235 1 0.85 0.477546 0.5
236 1 0.875 0.52528 0.5
237 1 0.9 0.477546 0.5
238 1 0.925 0.52528 0.5
239 1 0.95 0.477546 0.5
240 1 0.975 0.52528 0.5
261 1 0.5 0.573012 0.5
262 1 0.525 0.620743 0.5
263 1 0.55 0.573012 0.5
264 1 0.575 0.620743 0.5
265 1 0.6 0.573012 0.5
266 1 0.625 0.620743 0.5
267 1 0.65 0.573012 0.5
268 1 0.675 0.620743 0.5
269 1 0.7 0.573012 0.5
270 1 0.725 0.620743 0.5
271 1 0.75 0.573012 0.5
272 1 0.775 0.620743 0.5
273 1 0.8 0.573012 0.5
274 1 0.825 0.620743 0.5
275 1 0.85 0.573012 0.5
276 1 0.875 0.620743 0.5
277 1 0.9 0.573012 0.5
278 1 0.925 0.620743 0.5
279 1 0.95 0.573012 0.5
280 1 0.975 0.620743 0.5
301 1 0.5 0.66848 0.5
302 1 0.525 0.716212 0.5
303 1 0.55 0.66848 0.5
304 1 0.575 0.716212 0.5
305 1 0.6 0.66848 0.5
306 1 0.625 0.716212 0.5
307 1 0.65 0.66848 0.5
308 1 0.675 0.716212 0.5
309 1 0.7 0.66848 0.5
310 1 0.725 0.716212 0.5
311 1 0.75 0.66848 0.5
312 1 0.775 0.716212 0.5
313 1 0.8 0.66848 0.5
314 1 0.825 0.716212 0.5
315 1 0.85 0.66848 0.5
316 1 0.875 0.716212 0.5
317 1 0.9 0.66848 0.5
318 1 0.925 0.716212 0.5
319 1 0.95 0.66848 0.5
320 1 0.975 0.716212 0.5
341 1 0.5 0.763938 0.5
342 1 0.525 0.811665 0.5
343 1 0.55 0.763938 0.5
344 1 0.575 0.811665 0.5
345 1 0.6 0.763938 0.5
346 1 0.625 0.811665 0.5
347 1 0.65 0.763938 0.5
348 1 0.675 0.811665 0.5
349 1 0.7 0.763938 0.5
350 1 0.725 0.811665 0.5
351 1 0.75 0.763938 0.5
352 1 0.775 0.811665 0.5
353 1 0.8 0.763938 0.5
354 1 0.825 0.811665 0.5
355 1 0.85 0.763938 0.5
356 1 0.875 0.811665 0.5
357 1 0.9 0.763938 0.5
358 1 0.925 0.811665 0.5
359 1 0.95 0.763938 0.5
360 1 0.975 0.811665 0.5
381 3 0.5 0.859371 0.5
382 3 0.525 0.907084 0.5
383 3 0.55 0.859371 0.5
384 3 0.575 0.907084 0.5
385 3 0.6 0.859371 0.5
386 3 0.625 0.907084 0.5
387 3 0.65 0.859371 0.5
388 3 0.675 0.907084 0.5
389 3 0.7 0.859371 0.5
390 3 0.725 0.907084 0.5
391 3 0.75 0.859371 0.5
392 3 0.775 0.907084 0.5
393 1 0.8 0.859371 0.5
394 1 0.825 0.907084 0.5
395 1 0.85 0.859371 0.5
396 1 0.875 0.907084 0.5
397 1 0.9 0.859371 0.5
398 1 0.925 0.907084 0.5
399 1 0.95 0.859371 0.5
400 1 0.975 0.907084 0.5
411 3 0.5 0.954994 0.5
412 3 0.605632 0.999902 0.5
413 3 0.6 0.954994 0.5
414 3 0.65 0.954994 0.5
415 3 0.7 0.954994 0.5
416 3 0.75 0.954994 0.5
417 1 0.8 0.954994 0.5
418 1 0.85 0.954994 0.5
419 1 0.9 0.954994 0.5
420 1 0.95 0.954994 0.5
ITEM: TIMESTEP
150
ITEM: NUMBER OF ATOMS
420
ITEM: BOX BOUNDS pp ss pp
0.0000000000000000e+00 2.2653923264628304e+01
2.1918578738840608e-01 2.0452059086230239e+01
-2.8317404080785380e-01 2.8317404080785380e-01
ITEM: ATOMS id type xs ys zs
1 2 0 9.69847e-05 0.5
2 2 0.025 0.0476506 0.5
3 2 0.05 9.69847e-05 0.5
4 2 0.075 0.0476506 0.5
5 2 0.1 9.69847e-05 0.5
6 2 0.125 0.0476506 0.5
7 2 0.15 9.69847e-05 0.5
8 2 0.175 0.0476506 0.5
9 2 0.2 9.69847e-05 0.5
10 2 0.225 0.0476506 0.5
11 2 0.25 9.69847e-05 0.5
12 2 0.275 0.0476506 0.5
13 2 0.3 9.69847e-05 0.5
14 2 0.325 0.0476506 0.5
15 2 0.35 9.69847e-05 0.5
16 2 0.375 0.0476506 0.5
17 2 0.4 9.69847e-05 0.5
18 2 0.425 0.0476506 0.5
19 2 0.45 9.69847e-05 0.5
20 2 0.475 0.0476506 0.5
41 2 3.57546e-18 0.0950092 0.5
42 1 0.0249966 0.142377 0.5
43 2 0.05 0.0950092 0.5
44 1 0.0749964 0.142376 0.5
45 2 0.1 0.0950092 0.5
46 1 0.124996 0.142376 0.5
47 2 0.15 0.0950092 0.5
48 1 0.174997 0.142376 0.5
49 2 0.2 0.0950092 0.5
50 1 0.224997 0.142375 0.5
51 2 0.25 0.0950092 0.5
52 1 0.274998 0.142375 0.5
53 2 0.3 0.0950092 0.5
54 1 0.324998 0.142376 0.5
55 2 0.35 0.0950092 0.5
56 1 0.374999 0.142376 0.5
57 2 0.4 0.0950092 0.5
58 1 0.425 0.142376 0.5
59 2 0.45 0.0950092 0.5
60 1 0.475 0.142376 0.5
81 1 -6.18759e-06 0.189745 0.5
82 1 0.02499 0.237112 0.5
83 1 0.0499931 0.189744 0.5
84 1 0.0749892 0.237111 0.5
85 1 0.0999928 0.189743 0.5
86 1 0.124989 0.237109 0.5
87 1 0.149993 0.189742 0.5
88 1 0.17499 0.237108 0.5
89 1 0.199994 0.189742 0.5
90 1 0.224991 0.237107 0.5
91 1 0.249995 0.189741 0.5
92 1 0.274992 0.237107 0.5
93 1 0.299996 0.189741 0.5
94 1 0.324994 0.237107 0.5
95 1 0.349997 0.189742 0.5
96 1 0.374996 0.237108 0.5
97 1 0.399999 0.189742 0.5
98 1 0.424998 0.237109 0.5
99 1 0.45 0.189743 0.5
100 1 0.475 0.23711 0.5
410 3 0.449262 0.94769 0.5
122 1 0.0249814 0.331849 0.5
123 1 0.0499854 0.284479 0.5
124 1 0.0749799 0.331845 0.5
125 1 0.0999847 0.284477 0.5
126 1 0.124979 0.331842 0.5
127 1 0.149985 0.284474 0.5
128 1 0.17498 0.331838 0.5
129 1 0.199986 0.284473 0.5
130 1 0.224982 0.331836 0.5
131 1 0.249988 0.284472 0.5
132 1 0.274984 0.331835 0.5
133 1 0.29999 0.284471 0.5
134 1 0.324987 0.331835 0.5
135 1 0.349993 0.284472 0.5
136 1 0.374991 0.331837 0.5
137 1 0.399995 0.284473 0.5
138 1 0.424994 0.331839 0.5
139 1 0.449998 0.284475 0.5
140 1 0.474997 0.331842 0.5
409 1 0.399482 0.947682 0.5
162 1 0.0249691 0.426586 0.5
163 1 0.0499747 0.379215 0.5
164 1 0.0749668 0.42658 0.5
165 1 0.0999734 0.37921 0.5
166 1 0.124966 0.426573 0.5
167 1 0.149973 0.379205 0.5
168 1 0.174966 0.426567 0.5
169 1 0.199974 0.379201 0.5
170 1 0.224968 0.426562 0.5
171 1 0.249977 0.379199 0.5
172 1 0.274972 0.42656 0.5
173 1 0.299981 0.379198 0.5
174 1 0.324976 0.42656 0.5
175 1 0.349985 0.379199 0.5
176 1 0.374982 0.426562 0.5
177 1 0.399989 0.379202 0.5
178 1 0.424987 0.426567 0.5
179 1 0.449993 0.379205 0.5
180 1 0.474991 0.426573 0.5
201 1 -3.68356e-05 0.47396 0.5
202 1 0.0249526 0.521325 0.5
203 1 0.0499598 0.473951 0.5
204 1 0.0749491 0.521314 0.5
205 1 0.0999575 0.473942 0.5
206 1 0.124947 0.521303 0.5
207 1 0.149957 0.473934 0.5
208 1 0.174946 0.521292 0.5
209 1 0.199957 0.473926 0.5
210 1 0.224947 0.521284 0.5
211 1 0.24996 0.473921 0.5
212 1 0.274951 0.521279 0.5
213 1 0.299965 0.473919 0.5
214 1 0.324957 0.521278 0.5
215 1 0.349971 0.473921 0.5
216 1 0.374964 0.521282 0.5
217 1 0.399977 0.473925 0.5
218 1 0.424972 0.521289 0.5
219 1 0.449983 0.473932 0.5
220 1 0.474978 0.5213 0.5
241 1 -5.48599e-05 0.5687 0.5
242 1 0.024933 0.616064 0.5
243 1 0.0499409 0.568688 0.5
244 1 0.0749281 0.616048 0.5
245 1 0.099937 0.568674 0.5
246 1 0.124923 0.616032 0.5
247 1 0.149934 0.568661 0.5
248 1 0.174919 0.616016 0.5
249 1 0.199933 0.568648 0.5
250 1 0.224917 0.616001 0.5
251 1 0.249935 0.568639 0.5
252 1 0.274919 0.615991 0.5
253 1 0.299939 0.568634 0.5
254 1 0.324924 0.615987 0.5
255 1 0.349947 0.568635 0.5
256 1 0.374933 0.615992 0.5
257 1 0.399955 0.568642 0.5
258 1 0.424943 0.616005 0.5
259 1 0.449964 0.568655 0.5
260 1 0.474952 0.616023 0.5
281 1 -7.471e-05 0.663441 0.5
282 1 0.0249139 0.710803 0.5
283 1 0.0499204 0.663425 0.5
284 1 0.0749074 0.710785 0.5
285 1 0.0999141 0.663407 0.5
286 1 0.124899 0.710764 0.5
287 1 0.149907 0.663388 0.5
288 1 0.174888 0.710742 0.5
289 1 0.199901 0.663369 0.5
290 1 0.224878 0.710719 0.5
291 1 0.249897 0.663352 0.5
292 1 0.274871 0.710699 0.5
293 1 0.299898 0.66334 0.5
294 1 0.32487 0.710687 0.5
295 1 0.349904 0.663339 0.5
296 1 0.374876 0.71069 0.5
297 1 0.399915 0.663351 0.5
298 1 0.424889 0.710712 0.5
299 1 0.449925 0.663369 0.5
300 1 0.474898 0.710739 0.5
321 1 -9.17213e-05 0.758181 0.5
322 1 0.0249007 0.805542 0.5
323 1 0.0499031 0.758163 0.5
324 1 0.0748928 0.805523 0.5
325 1 0.0998938 0.758143 0.5
326 1 0.124879 0.805502 0.5
327 1 0.149881 0.75812 0.5
328 1 0.174861 0.805476 0.5
329 1 0.199866 0.758095 0.5
330 1 0.224838 0.805447 0.5
331 1 0.24985 0.758068 0.5
332 1 0.274813 0.805416 0.5
333 1 0.299837 0.758045 0.5
334 1 0.324789 0.805389 0.5
335 1 0.34983 0.758032 0.5
336 1 0.374774 0.805374 0.5
337 1 0.399837 0.75804 0.5
338 1 0.424777 0.805392 0.5
339 1 0.449854 0.758082 0.5
340 1 0.474805 0.805471 0.5
408 1 0.349627 0.947705 0.5
362 1 0.0248988 0.900282 0.5
363 1 0.0498947 0.852903 0.5
364 1 0.0748904 0.900267 0.5
365 1 0.099883 0.852884 0.5
366 1 0.124875 0.900248 0.5
367 1 0.149865 0.852861 0.5
368 1 0.17485 0.900225 0.5
369 1 0.199839 0.852834 0.5
370 1 0.224815 0.900197 0.5
371 1 0.249806 0.852802 0.5
372 1 0.274767 0.900164 0.5
373 1 0.299766 0.852767 0.5
374 1 0.324705 0.900127 0.5
375 1 0.349724 0.852735 0.5
376 1 0.374627 0.900093 0.5
377 1 0.399688 0.852717 0.5
378 1 0.424539 0.900075 0.5
379 3 0.44968 0.852744 0.5
380 3 0.474466 0.900109 0.5
407 1 0.299724 0.947735 0.5
402 1 0.0498997 0.947846 0.5
403 1 0.0998883 0.947832 0.5
404 1 0.149868 0.947814 0.5
405 1 0.199837 0.947792 0.5
406 1 0.249791 0.947765 0.5
101 1 0.500001 0.189744 0.5
181 1 0.499996 0.37921 0.5
221 1 0.499988 0.473941 0.5
261 1 0.499971 0.56867 0.5
301 1 0.499935 0.663396 0.5
341 1 0.499856 0.758113 0.5
381 3 0.499737 0.852907 0.5
411 3 0.49897 0.947822 0.5
21 2 0.5 9.69847e-05 0.5
22 2 0.525 0.0476506 0.5
23 2 0.55 9.69847e-05 0.5
24 2 0.575 0.0476506 0.5
25 2 0.6 9.69847e-05 0.5
26 2 0.625 0.0476506 0.5
27 2 0.65 9.69847e-05 0.5
28 2 0.675 0.0476506 0.5
29 2 0.7 9.69847e-05 0.5
30 2 0.725 0.0476506 0.5
31 2 0.75 9.69847e-05 0.5
32 2 0.775 0.0476506 0.5
33 2 0.8 9.69847e-05 0.5
34 2 0.825 0.0476506 0.5
35 2 0.85 9.69847e-05 0.5
36 2 0.875 0.0476506 0.5
37 2 0.9 9.69847e-05 0.5
38 2 0.925 0.0476506 0.5
39 2 0.95 9.69847e-05 0.5
40 2 0.975 0.0476506 0.5
61 2 0.5 0.0950092 0.5
62 1 0.525001 0.142377 0.5
63 2 0.55 0.0950092 0.5
64 1 0.575001 0.142377 0.5
65 2 0.6 0.0950092 0.5
66 1 0.625001 0.142378 0.5
67 2 0.65 0.0950092 0.5
68 1 0.675001 0.142378 0.5
69 2 0.7 0.0950092 0.5
70 1 0.725 0.142378 0.5
71 2 0.75 0.0950092 0.5
72 1 0.775 0.142378 0.5
73 2 0.8 0.0950092 0.5
74 1 0.824999 0.142378 0.5
75 2 0.85 0.0950092 0.5
76 1 0.874998 0.142378 0.5
77 2 0.9 0.0950092 0.5
78 1 0.924998 0.142377 0.5
79 2 0.95 0.0950092 0.5
80 1 0.974997 0.142377 0.5
420 1 0.949902 0.94787 0.5
102 1 0.525001 0.237112 0.5
103 1 0.550001 0.189745 0.5
104 1 0.575001 0.237113 0.5
105 1 0.600001 0.189746 0.5
106 1 0.625002 0.237115 0.5
107 1 0.650001 0.189747 0.5
108 1 0.675001 0.237116 0.5
109 1 0.700001 0.189747 0.5
110 1 0.725 0.237117 0.5
111 1 0.75 0.189747 0.5
112 1 0.774999 0.237117 0.5
113 1 0.799999 0.189747 0.5
114 1 0.824997 0.237117 0.5
115 1 0.849997 0.189747 0.5
116 1 0.874995 0.237117 0.5
117 1 0.899996 0.189747 0.5
118 1 0.924993 0.237116 0.5
119 1 0.949995 0.189746 0.5
120 1 0.974991 0.237114 0.5
141 1 0.5 0.284478 0.5
142 1 0.524999 0.331846 0.5
143 1 0.550001 0.28448 0.5
144 1 0.575 0.331849 0.5
145 1 0.600001 0.284483 0.5
146 1 0.625 0.331853 0.5
147 1 0.650001 0.284485 0.5
148 1 0.674999 0.331856 0.5
149 1 0.7 0.284486 0.5
150 1 0.724998 0.331857 0.5
151 1 0.749998 0.284487 0.5
152 1 0.774995 0.331858 0.5
153 1 0.799996 0.284488 0.5
154 1 0.824993 0.331858 0.5
155 1 0.849994 0.284487 0.5
156 1 0.87499 0.331857 0.5
157 1 0.899991 0.284486 0.5
158 1 0.924987 0.331855 0.5
159 1 0.949989 0.284484 0.5
160 1 0.974984 0.331853 0.5
419 1 0.899894 0.947883 0.5
182 1 0.524994 0.426579 0.5
183 1 0.549998 0.379215 0.5
184 1 0.574995 0.426586 0.5
185 1 0.599998 0.37922 0.5
186 1 0.624995 0.426592 0.5
187 1 0.649998 0.379224 0.5
188 1 0.674994 0.426597 0.5
189 1 0.699996 0.379227 0.5
190 1 0.724992 0.426601 0.5
191 1 0.749994 0.37923 0.5
192 1 0.774988 0.426603 0.5
193 1 0.799991 0.37923 0.5
194 1 0.824985 0.426603 0.5
195 1 0.849987 0.37923 0.5
196 1 0.874981 0.426601 0.5
197 1 0.899984 0.379228 0.5
198 1 0.924976 0.426598 0.5
199 1 0.94998 0.379224 0.5
200 1 0.974972 0.426593 0.5
418 1 0.849877 0.947901 0.5
222 1 0.524983 0.521312 0.5
223 1 0.54999 0.47395 0.5
224 1 0.574985 0.521324 0.5
225 1 0.599991 0.473959 0.5
226 1 0.624984 0.521335 0.5
227 1 0.64999 0.473966 0.5
228 1 0.674983 0.521343 0.5
229 1 0.699988 0.473972 0.5
230 1 0.72498 0.521348 0.5
231 1 0.749985 0.473975 0.5
232 1 0.774976 0.521351 0.5
233 1 0.799981 0.473976 0.5
234 1 0.824971 0.521351 0.5
235 1 0.849976 0.473975 0.5
236 1 0.874966 0.521348 0.5
237 1 0.899972 0.473972 0.5
238 1 0.924961 0.521342 0.5
239 1 0.949967 0.473967 0.5
240 1 0.974957 0.521335 0.5
417 1 0.799847 0.947928 0.5
262 1 0.524959 0.616045 0.5
263 1 0.549974 0.568687 0.5
264 1 0.574962 0.616065 0.5
265 1 0.599976 0.568701 0.5
266 1 0.624963 0.616082 0.5
267 1 0.649975 0.568713 0.5
268 1 0.674962 0.616093 0.5
269 1 0.699972 0.56872 0.5
270 1 0.72496 0.6161 0.5
271 1 0.749969 0.568725 0.5
272 1 0.774955 0.616104 0.5
273 1 0.799964 0.568727 0.5
274 1 0.824949 0.616104 0.5
275 1 0.849959 0.568725 0.5
276 1 0.874945 0.616099 0.5
277 1 0.899954 0.56872 0.5
278 1 0.924941 0.616089 0.5
279 1 0.949949 0.568711 0.5
280 1 0.974937 0.616077 0.5
416 3 0.749794 0.947971 0.5
302 1 0.52491 0.710775 0.5
303 1 0.549942 0.663425 0.5
304 1 0.574921 0.71081 0.5
305 1 0.599947 0.663448 0.5
306 1 0.62493 0.710833 0.5
307 1 0.649949 0.663464 0.5
308 1 0.674935 0.710847 0.5
309 1 0.699949 0.663474 0.5
310 1 0.724932 0.71086 0.5
311 1 0.749944 0.663482 0.5
312 1 0.774921 0.71087 0.5
313 1 0.799937 0.663485 0.5
314 1 0.824918 0.710862 0.5
315 1 0.849933 0.663479 0.5
316 1 0.874918 0.710849 0.5
317 1 0.899931 0.663469 0.5
318 1 0.924919 0.710835 0.5
319 1 0.949929 0.663456 0.5
320 1 0.974918 0.71082 0.5
415 3 0.699645 0.948125 0.5
342 1 0.524789 0.805489 0.5
343 1 0.549876 0.75816 0.5
344 1 0.574845 0.805538 0.5
345 1 0.5999 0.758194 0.5
346 1 0.624901 0.805566 0.5
347 1 0.64992 0.758214 0.5
348 1 0.674919 0.805605 0.5
349 1 0.699921 0.758237 0.5
350 1 0.724872 0.805668 0.5
351 1 0.7499 0.758261 0.5
352 1 0.774872 0.805642 0.5
353 1 0.799898 0.758249 0.5
354 1 0.824883 0.805615 0.5
355 1 0.849902 0.758231 0.5
356 1 0.874893 0.805593 0.5
357 1 0.899907 0.758214 0.5
358 1 0.924901 0.805575 0.5
359 1 0.949909 0.758198 0.5
360 1 0.974903 0.805559 0.5
414 3 0.64931 0.948735 0.5
382 3 0.524642 0.900503 0.5
383 3 0.549695 0.852823 0.5
384 3 0.574627 0.900059 0.5
385 3 0.599867 0.852879 0.5
386 3 0.625019 0.900187 0.5
387 3 0.649944 0.852942 0.5
388 3 0.674717 0.900666 0.5
389 3 0.699831 0.853111 0.5
390 3 0.724778 0.900476 0.5
391 3 0.749841 0.853045 0.5
392 3 0.774837 0.900386 0.5
393 1 0.799862 0.853 0.5
394 1 0.824864 0.900352 0.5
395 1 0.849879 0.852972 0.5
396 1 0.874883 0.900327 0.5
397 1 0.899892 0.852951 0.5
398 1 0.924895 0.90031 0.5
399 1 0.949899 0.852934 0.5
400 1 0.9749 0.900296 0.5
413 3 0.599715 0.946953 0.5
412 3 0.607603 1.00077 0.5
121 1 0.999987 0.284482 0.5
161 1 0.999977 0.37922 0.5
361 1 0.9999 0.852919 0.5
401 1 0.999904 0.947858 0.5
ITEM: TIMESTEP
182
ITEM: NUMBER OF ATOMS
420
ITEM: BOX BOUNDS pp ss pp
0.0000000000000000e+00 2.2653923264628304e+01
2.1918578738840608e-01 2.0469668186606700e+01
-2.8317404080785380e-01 2.8317404080785380e-01
ITEM: ATOMS id type xs ys zs
1 2 0 9.69004e-05 0.5
2 2 0.025 0.0476091 0.5
3 2 0.05 9.69004e-05 0.5
4 2 0.075 0.0476091 0.5
5 2 0.1 9.69004e-05 0.5
6 2 0.125 0.0476091 0.5
7 2 0.15 9.69004e-05 0.5
8 2 0.175 0.0476091 0.5
9 2 0.2 9.69004e-05 0.5
10 2 0.225 0.0476091 0.5
11 2 0.25 9.69004e-05 0.5
12 2 0.275 0.0476091 0.5
13 2 0.3 9.69004e-05 0.5
14 2 0.325 0.0476091 0.5
15 2 0.35 9.69004e-05 0.5
16 2 0.375 0.0476091 0.5
17 2 0.4 9.69004e-05 0.5
18 2 0.425 0.0476091 0.5
19 2 0.45 9.69004e-05 0.5
20 2 0.475 0.0476091 0.5
41 2 3.57546e-18 0.0949266 0.5
42 1 0.0249945 0.142252 0.5
43 2 0.05 0.0949266 0.5
44 1 0.0749945 0.142252 0.5
45 2 0.1 0.0949266 0.5
46 1 0.124995 0.142252 0.5
47 2 0.15 0.0949266 0.5
48 1 0.174995 0.142251 0.5
49 2 0.2 0.0949266 0.5
50 1 0.224996 0.142251 0.5
51 2 0.25 0.0949266 0.5
52 1 0.274997 0.142251 0.5
53 2 0.3 0.0949266 0.5
54 1 0.324998 0.142251 0.5
55 2 0.35 0.0949266 0.5
56 1 0.374999 0.142252 0.5
57 2 0.4 0.0949266 0.5
58 1 0.425 0.142252 0.5
59 2 0.45 0.0949266 0.5
60 1 0.475 0.142253 0.5
411 3 0.498928 0.947007 0.5
82 1 0.0249837 0.236905 0.5
83 1 0.0499891 0.189578 0.5
84 1 0.0749835 0.236903 0.5
85 1 0.0999893 0.189577 0.5
86 1 0.124984 0.236901 0.5
87 1 0.14999 0.189576 0.5
88 1 0.174985 0.236899 0.5
89 1 0.199991 0.189575 0.5
90 1 0.224987 0.236899 0.5
91 1 0.249993 0.189575 0.5
92 1 0.27499 0.236899 0.5
93 1 0.299995 0.189575 0.5
94 1 0.324992 0.236899 0.5
95 1 0.349996 0.189576 0.5
96 1 0.374995 0.2369 0.5
97 1 0.399998 0.189577 0.5
98 1 0.424997 0.236902 0.5
99 1 0.449999 0.189578 0.5
100 1 0.474998 0.236904 0.5
410 3 0.44922 0.946867 0.5
122 1 0.0249708 0.331558 0.5
123 1 0.0499773 0.284229 0.5
124 1 0.0749702 0.331553 0.5
125 1 0.0999775 0.284226 0.5
126 1 0.124971 0.331549 0.5
127 1 0.149979 0.284224 0.5
128 1 0.174973 0.331545 0.5
129 1 0.199981 0.284222 0.5
130 1 0.224976 0.331543 0.5
131 1 0.249984 0.284221 0.5
132 1 0.274979 0.331543 0.5
133 1 0.299987 0.284221 0.5
134 1 0.324984 0.331544 0.5
135 1 0.34999 0.284223 0.5
136 1 0.374988 0.331546 0.5
137 1 0.399993 0.284225 0.5
138 1 0.424991 0.33155 0.5
139 1 0.449996 0.284228 0.5
140 1 0.474994 0.331554 0.5
409 1 0.399441 0.946853 0.5
162 1 0.0249539 0.426211 0.5
163 1 0.0499623 0.378881 0.5
164 1 0.0749527 0.426203 0.5
165 1 0.0999621 0.378875 0.5
166 1 0.124953 0.426195 0.5
167 1 0.149963 0.378869 0.5
168 1 0.174955 0.426188 0.5
169 1 0.199966 0.378866 0.5
170 1 0.224959 0.426184 0.5
171 1 0.24997 0.378864 0.5
172 1 0.274964 0.426183 0.5
173 1 0.299975 0.378864 0.5
174 1 0.32497 0.426184 0.5
175 1 0.34998 0.378866 0.5
176 1 0.374976 0.426188 0.5
177 1 0.399985 0.37887 0.5
178 1 0.424981 0.426195 0.5
179 1 0.449989 0.378875 0.5
180 1 0.474985 0.426203 0.5
381 3 0.499708 0.852176 0.5
202 1 0.0249327 0.520865 0.5
203 1 0.0499428 0.473532 0.5
204 1 0.0749305 0.520852 0.5
205 1 0.0999418 0.473522 0.5
206 1 0.12493 0.520839 0.5
207 1 0.149943 0.473513 0.5
208 1 0.174931 0.520828 0.5
209 1 0.199945 0.473505 0.5
210 1 0.224934 0.52082 0.5
211 1 0.24995 0.473501 0.5
212 1 0.274939 0.520816 0.5
213 1 0.299956 0.473501 0.5
214 1 0.324947 0.520818 0.5
215 1 0.349963 0.473504 0.5
216 1 0.374955 0.520824 0.5
217 1 0.39997 0.473511 0.5
218 1 0.424963 0.520835 0.5
219 1 0.449976 0.473521 0.5
220 1 0.474969 0.520849 0.5
341 1 0.499834 0.757462 0.5
242 1 0.0249089 0.615519 0.5
243 1 0.0499194 0.568184 0.5
244 1 0.0749053 0.615501 0.5
245 1 0.0999169 0.568168 0.5
246 1 0.124902 0.615483 0.5
247 1 0.149916 0.568154 0.5
248 1 0.174899 0.615466 0.5
249 1 0.199916 0.568141 0.5
250 1 0.224899 0.615452 0.5
251 1 0.24992 0.568133 0.5
252 1 0.274902 0.615443 0.5
253 1 0.299926 0.56813 0.5
254 1 0.324909 0.615443 0.5
255 1 0.349935 0.568135 0.5
256 1 0.374919 0.615452 0.5
257 1 0.399944 0.568145 0.5
258 1 0.424929 0.615468 0.5
259 1 0.449953 0.568161 0.5
260 1 0.474938 0.615491 0.5
301 1 0.499918 0.662826 0.5
282 1 0.0248872 0.710174 0.5
283 1 0.0498953 0.662836 0.5
284 1 0.0748814 0.710152 0.5
285 1 0.0998901 0.662816 0.5
286 1 0.124873 0.710129 0.5
287 1 0.149884 0.662795 0.5
288 1 0.174864 0.710106 0.5
289 1 0.19988 0.662776 0.5
290 1 0.224855 0.710084 0.5
291 1 0.249877 0.66276 0.5
292 1 0.274849 0.710067 0.5
293 1 0.299879 0.662752 0.5
294 1 0.324848 0.710058 0.5
295 1 0.349887 0.662754 0.5
296 1 0.374856 0.710066 0.5
297 1 0.399898 0.66277 0.5
298 1 0.42487 0.710093 0.5
299 1 0.449908 0.662794 0.5
300 1 0.474879 0.710126 0.5
261 1 0.499959 0.56818 0.5
322 1 0.0248736 0.804829 0.5
323 1 0.0498759 0.75749 0.5
324 1 0.0748654 0.804807 0.5
325 1 0.099867 0.757467 0.5
326 1 0.124852 0.804782 0.5
327 1 0.149855 0.757442 0.5
328 1 0.174833 0.804756 0.5
329 1 0.19984 0.757417 0.5
330 1 0.22481 0.804728 0.5
331 1 0.249824 0.757392 0.5
332 1 0.274785 0.804699 0.5
333 1 0.299812 0.757371 0.5
334 1 0.324762 0.804676 0.5
335 1 0.349806 0.757363 0.5
336 1 0.374746 0.804666 0.5
337 1 0.399813 0.757377 0.5
338 1 0.42475 0.804691 0.5
339 1 0.449831 0.757425 0.5
340 1 0.474779 0.804776 0.5
408 1 0.349587 0.94687 0.5
362 1 0.0248742 0.899487 0.5
363 1 0.049868 0.852146 0.5
364 1 0.0748642 0.899467 0.5
365 1 0.0998554 0.852124 0.5
366 1 0.124846 0.899446 0.5
367 1 0.149836 0.852099 0.5
368 1 0.17482 0.899422 0.5
369 1 0.199809 0.852072 0.5
370 1 0.224783 0.899394 0.5
371 1 0.249775 0.852041 0.5
372 1 0.274733 0.899363 0.5
373 1 0.299735 0.85201 0.5
374 1 0.32467 0.899331 0.5
375 1 0.349692 0.851982 0.5
376 1 0.374591 0.899302 0.5
377 1 0.399656 0.851971 0.5
378 1 0.424503 0.89929 0.5
379 3 0.44965 0.852005 0.5
380 3 0.474431 0.899332 0.5
407 1 0.299686 0.946895 0.5
402 1 0.0498764 0.947008 0.5
403 1 0.0998623 0.94699 0.5
404 1 0.149839 0.94697 0.5
405 1 0.199805 0.946948 0.5
406 1 0.249756 0.946922 0.5
221 1 0.49998 0.473532 0.5
181 1 0.499991 0.378882 0.5
141 1 0.499997 0.284231 0.5
21 2 0.5 9.69004e-05 0.5
22 2 0.525 0.0476091 0.5
23 2 0.55 9.69004e-05 0.5
24 2 0.575 0.0476091 0.5
25 2 0.6 9.69004e-05 0.5
26 2 0.625 0.0476091 0.5
27 2 0.65 9.69004e-05 0.5
28 2 0.675 0.0476091 0.5
29 2 0.7 9.69004e-05 0.5
30 2 0.725 0.0476091 0.5
31 2 0.75 9.69004e-05 0.5
32 2 0.775 0.0476091 0.5
33 2 0.8 9.69004e-05 0.5
34 2 0.825 0.0476091 0.5
35 2 0.85 9.69004e-05 0.5
36 2 0.875 0.0476091 0.5
37 2 0.9 9.69004e-05 0.5
38 2 0.925 0.0476091 0.5
39 2 0.95 9.69004e-05 0.5
40 2 0.975 0.0476091 0.5
61 2 0.5 0.0949266 0.5
62 1 0.525 0.142253 0.5
63 2 0.55 0.0949266 0.5
64 1 0.575 0.142253 0.5
65 2 0.6 0.0949266 0.5
66 1 0.625 0.142254 0.5
67 2 0.65 0.0949266 0.5
68 1 0.674999 0.142254 0.5
69 2 0.7 0.0949266 0.5
70 1 0.724999 0.142254 0.5
71 2 0.75 0.0949266 0.5
72 1 0.774998 0.142254 0.5
73 2 0.8 0.0949266 0.5
74 1 0.824997 0.142254 0.5
75 2 0.85 0.0949266 0.5
76 1 0.874996 0.142254 0.5
77 2 0.9 0.0949266 0.5
78 1 0.924995 0.142253 0.5
79 2 0.95 0.0949266 0.5
80 1 0.974995 0.142253 0.5
420 1 0.949883 0.947041 0.5
102 1 0.524999 0.236906 0.5
103 1 0.55 0.18958 0.5
104 1 0.574999 0.236908 0.5
105 1 0.6 0.189581 0.5
106 1 0.624999 0.236909 0.5
107 1 0.649999 0.189582 0.5
108 1 0.674997 0.236911 0.5
109 1 0.699998 0.189583 0.5
110 1 0.724995 0.236912 0.5
111 1 0.749996 0.189583 0.5
112 1 0.774993 0.236912 0.5
113 1 0.799995 0.189583 0.5
114 1 0.824991 0.236911 0.5
115 1 0.849993 0.189582 0.5
116 1 0.874988 0.23691 0.5
117 1 0.899992 0.189581 0.5
118 1 0.924986 0.236909 0.5
119 1 0.94999 0.18958 0.5
120 1 0.974985 0.236907 0.5
401 1 0.999883 0.947024 0.5
142 1 0.524995 0.331558 0.5
143 1 0.549998 0.284234 0.5
144 1 0.574996 0.331563 0.5
145 1 0.599997 0.284237 0.5
146 1 0.624994 0.331567 0.5
147 1 0.649996 0.284239 0.5
148 1 0.674992 0.33157 0.5
149 1 0.699994 0.284241 0.5
150 1 0.724989 0.331571 0.5
151 1 0.749991 0.284242 0.5
152 1 0.774986 0.331572 0.5
153 1 0.799988 0.284241 0.5
154 1 0.824982 0.331571 0.5
155 1 0.849985 0.28424 0.5