ITEM: TIMESTEP
0
ITEM: NUMBER OF ATOMS
420
ITEM: BOX BOUNDS pp ss pp
0.0000000000000000e+00 2.2653923264628304e+01
2.1918578738840608e-01 2.0000928177627760e+01
-2.8317404080785380e-01 2.8317404080785380e-01
ITEM: ATOMS id type xs ys zs
1 2 0 9.91965e-05 0.5
2 2 0.025 0.0487373 0.5
3 2 0.05 9.91965e-05 0.5
4 2 0.075 0.0487373 0.5
5 2 0.1 9.91965e-05 0.5
6 2 0.125 0.0487373 0.5
7 2 0.15 9.91965e-05 0.5
8 2 0.175 0.0487373 0.5
9 2 0.2 9.91965e-05 0.5
10 2 0.225 0.0487373 0.5
11 2 0.25 9.91965e-05 0.5
12 2 0.275 0.0487373 0.5
13 2 0.3 9.91965e-05 0.5
14 2 0.325 0.0487373 0.5
15 2 0.35 9.91965e-05 0.5
16 2 0.375 0.0487373 0.5
17 2 0.4 9.91965e-05 0.5
18 2 0.425 0.0487373 0.5
19 2 0.45 9.91965e-05 0.5
20 2 0.475 0.0487373 0.5
41 2 3.57546e-18 0.0971759 0.5
42 1 0.025 0.145606 0.5
43 2 0.05 0.0971759 0.5
44 1 0.075 0.145606 0.5
45 2 0.1 0.0971759 0.5
46 1 0.125 0.145606 0.5
47 2 0.15 0.0971759 0.5
48 1 0.175 0.145606 0.5
49 2 0.2 0.0971759 0.5
50 1 0.225 0.145606 0.5
51 2 0.25 0.0971759 0.5
52 1 0.275 0.145606 0.5
53 2 0.3 0.0971759 0.5
54 1 0.325 0.145606 0.5
55 2 0.35 0.0971759 0.5
56 1 0.375 0.145606 0.5
57 2 0.4 0.0971759 0.5
58 1 0.425 0.145606 0.5
59 2 0.45 0.0971759 0.5
60 1 0.475 0.145606 0.5
81 1 2.74429e-20 0.194059 0.5
82 1 0.025 0.24251 0.5
83 1 0.05 0.194059 0.5
84 1 0.075 0.24251 0.5
85 1 0.1 0.194059 0.5
86 1 0.125 0.24251 0.5
87 1 0.15 0.194059 0.5
88 1 0.175 0.24251 0.5
89 1 0.2 0.194059 0.5
90 1 0.225 0.24251 0.5
91 1 0.25 0.194059 0.5
92 1 0.275 0.24251 0.5
93 1 0.3 0.194059 0.5
94 1 0.325 0.24251 0.5
95 1 0.35 0.194059 0.5
96 1 0.375 0.24251 0.5
97 1 0.4 0.194059 0.5
98 1 0.425 0.24251 0.5
99 1 0.45 0.194059 0.5
100 1 0.475 0.24251 0.5
121 1 0 0.290968 0.5
122 1 0.025 0.33943 0.5
123 1 0.05 0.290968 0.5
124 1 0.075 0.33943 0.5
125 1 0.1 0.290968 0.5
126 1 0.125 0.33943 0.5
127 1 0.15 0.290968 0.5
128 1 0.175 0.33943 0.5
129 1 0.2 0.290968 0.5
130 1 0.225 0.33943 0.5
131 1 0.25 0.290968 0.5
132 1 0.275 0.33943 0.5
133 1 0.3 0.290968 0.5
134 1 0.325 0.33943 0.5
135 1 0.35 0.290968 0.5
136 1 0.375 0.33943 0.5
137 1 0.4 0.290968 0.5
138 1 0.425 0.33943 0.5
139 1 0.45 0.290968 0.5
140 1 0.475 0.33943 0.5
161 1 0 0.387886 0.5
162 1 0.025 0.436344 0.5
163 1 0.05 0.387886 0.5
164 1 0.075 0.436344 0.5
165 1 0.1 0.387886 0.5
166 1 0.125 0.436344 0.5
167 1 0.15 0.387886 0.5
168 1 0.175 0.436344 0.5
169 1 0.2 0.387886 0.5
170 1 0.225 0.436344 0.5
171 1 0.25 0.387886 0.5
172 1 0.275 0.436344 0.5
173 1 0.3 0.387886 0.5
174 1 0.325 0.436344 0.5
175 1 0.35 0.387886 0.5
176 1 0.375 0.436344 0.5
177 1 0.4 0.387886 0.5
178 1 0.425 0.436344 0.5
179 1 0.45 0.387886 0.5
180 1 0.475 0.436344 0.5
201 1 0 0.484803 0.5
202 1 0.025 0.533263 0.5
203 1 0.05 0.484803 0.5
204 1 0.075 0.533263 0.5
205 1 0.1 0.484803 0.5
206 1 0.125 0.533263 0.5
207 1 0.15 0.484803 0.5
208 1 0.175 0.533263 0.5
209 1 0.2 0.484803 0.5
210 1 0.225 0.533263 0.5
211 1 0.25 0.484803 0.5
212 1 0.275 0.533263 0.5
213 1 0.3 0.484803 0.5
214 1 0.325 0.533263 0.5
215 1 0.35 0.484803 0.5
216 1 0.375 0.533263 0.5
217 1 0.4 0.484803 0.5
218 1 0.425 0.533263 0.5
219 1 0.45 0.484803 0.5
220 1 0.475 0.533263 0.5
241 1 0 0.58172 0.5
242 1 0.025 0.630176 0.5
243 1 0.05 0.58172 0.5
244 1 0.075 0.630176 0.5
245 1 0.1 0.58172 0.5
246 1 0.125 0.630176 0.5
247 1 0.15 0.58172 0.5
248 1 0.175 0.630176 0.5
249 1 0.2 0.58172 0.5
250 1 0.225 0.630176 0.5
251 1 0.25 0.58172 0.5
252 1 0.275 0.630176 0.5
253 1 0.3 0.58172 0.5
254 1 0.325 0.630176 0.5
255 1 0.35 0.58172 0.5
256 1 0.375 0.630176 0.5
257 1 0.4 0.58172 0.5
258 1 0.425 0.630176 0.5
259 1 0.45 0.58172 0.5
260 1 0.475 0.630176 0.5
281 1 2.18851e-18 0.678638 0.5
282 1 0.025 0.727097 0.5
283 1 0.05 0.678638 0.5
284 1 0.075 0.727097 0.5
285 1 0.1 0.678638 0.5
286 1 0.125 0.727097 0.5
287 1 0.15 0.678638 0.5
288 1 0.175 0.727097 0.5
289 1 0.2 0.678638 0.5
290 1 0.225 0.727097 0.5
291 1 0.25 0.678638 0.5
292 1 0.275 0.727097 0.5
293 1 0.3 0.678638 0.5
294 1 0.325 0.727097 0.5
295 1 0.35 0.678638 0.5
296 1 0.375 0.727097 0.5
297 1 0.4 0.678638 0.5
298 1 0.425 0.727097 0.5
299 1 0.45 0.678638 0.5
300 1 0.475 0.727097 0.5
321 1 0 0.775547 0.5
322 1 0.025 0.824 0.5
323 1 0.05 0.775547 0.5
324 1 0.075 0.824 0.5
325 1 0.1 0.775547 0.5
326 1 0.125 0.824 0.5
327 1 0.15 0.775547 0.5
328 1 0.175 0.824 0.5
329 1 0.2 0.775547 0.5
330 1 0.225 0.824 0.5
331 1 0.25 0.775547 0.5
332 1 0.275 0.824 0.5
333 1 0.3 0.775547 0.5
334 1 0.325 0.824 0.5
335 1 0.35 0.775547 0.5
336 1 0.375 0.824 0.5
337 1 0.4 0.775547 0.5
338 1 0.425 0.824 0.5
339 1 0.45 0.775547 0.5
340 1 0.475 0.824 0.5
361 1 5.74281e-19 0.87243 0.5
362 1 0.025 0.920869 0.5
363 1 0.05 0.87243 0.5
364 1 0.075 0.920869 0.5
365 1 0.1 0.87243 0.5
366 1 0.125 0.920869 0.5
367 1 0.15 0.87243 0.5
368 1 0.175 0.920869 0.5
369 1 0.2 0.87243 0.5
370 1 0.225 0.920869 0.5
371 1 0.25 0.87243 0.5
372 1 0.275 0.920869 0.5
373 1 0.3 0.87243 0.5
374 1 0.325 0.920869 0.5
375 1 0.35 0.87243 0.5
376 1 0.375 0.920869 0.5
377 1 0.4 0.87243 0.5
378 1 0.425 0.920869 0.5
379 3 0.45 0.87243 0.5
380 3 0.475 0.920869 0.5
401 1 3.60804e-19 0.969507 0.5
402 1 0.05 0.969507 0.5
403 1 0.1 0.969507 0.5
404 1 0.15 0.969507 0.5
405 1 0.2 0.969507 0.5
406 1 0.25 0.969507 0.5
407 1 0.3 0.969507 0.5
408 1 0.35 0.969507 0.5
409 1 0.4 0.969507 0.5
410 3 0.45 0.969507 0.5
21 2 0.5 9.91965e-05 0.5
22 2 0.525 0.0487373 0.5
23 2 0.55 9.91965e-05 0.5
24 2 0.575 0.0487373 0.5
25 2 0.6 9.91965e-05 0.5
26 2 0.625 0.0487373 0.5
27 2 0.65 9.91965e-05 0.5
28 2 0.675 0.0487373 0.5
29 2 0.7 9.91965e-05 0.5
30 2 0.725 0.0487373 0.5
31 2 0.75 9.91965e-05 0.5
32 2 0.775 0.0487373 0.5
33 2 0.8 9.91965e-05 0.5
34 2 0.825 0.0487373 0.5
35 2 0.85 9.91965e-05 0.5
36 2 0.875 0.0487373 0.5
37 2 0.9 9.91965e-05 0.5
38 2 0.925 0.0487373 0.5
39 2 0.95 9.91965e-05 0.5
40 2 0.975 0.0487373 0.5
61 2 0.5 0.0971759 0.5
62 1 0.525 0.145606 0.5
63 2 0.55 0.0971759 0.5
64 1 0.575 0.145606 0.5
65 2 0.6 0.0971759 0.5
66 1 0.625 0.145606 0.5
67 2 0.65 0.0971759 0.5
68 1 0.675 0.145606 0.5
69 2 0.7 0.0971759 0.5
70 1 0.725 0.145606 0.5
71 2 0.75 0.0971759 0.5
72 1 0.775 0.145606 0.5
73 2 0.8 0.0971759 0.5
74 1 0.825 0.145606 0.5
75 2 0.85 0.0971759 0.5
76 1 0.875 0.145606 0.5
77 2 0.9 0.0971759 0.5
78 1 0.925 0.145606 0.5
79 2 0.95 0.0971759 0.5
80 1 0.975 0.145606 0.5
101 1 0.5 0.194059 0.5
102 1 0.525 0.24251 0.5
103 1 0.55 0.194059 0.5
104 1 0.575 0.24251 0.5
105 1 0.6 0.194059 0.5
106 1 0.625 0.24251 0.5
107 1 0.65 0.194059 0.5
108 1 0.675 0.24251 0.5
109 1 0.7 0.194059 0.5
110 1 0.725 0.24251 0.5
111 1 0.75 0.194059 0.5
112 1 0.775 0.24251 0.5
113 1 0.8 0.194059 0.5
114 1 0.825 0.24251 0.5
115 1 0.85 0.194059 0.5
116 1 0.875 0.24251 0.5
117 1 0.9 0.194059 0.5
118 1 0.925 0.24251 0.5
119 1 0.95 0.194059 0.5
120 1 0.975 0.24251 0.5
141 1 0.5 0.290968 0.5
142 1 0.525 0.33943 0.5
143 1 0.55 0.290968 0.5
144 1 0.575 0.33943 0.5
145 1 0.6 0.290968 0.5
146 1 0.625 0.33943 0.5
147 1 0.65 0.290968 0.5
148 1 0.675 0.33943 0.5
149 1 0.7 0.290968 0.5
150 1 0.725 0.33943 0.5
151 1 0.75 0.290968 0.5
152 1 0.775 0.33943 0.5
153 1 0.8 0.290968 0.5
154 1 0.825 0.33943 0.5
155 1 0.85 0.290968 0.5
156 1 0.875 0.33943 0.5
157 1 0.9 0.290968 0.5
158 1 0.925 0.33943 0.5
159 1 0.95 0.290968 0.5
160 1 0.975 0.33943 0.5
181 1 0.5 0.387886 0.5
182 1 0.525 0.436344 0.5
183 1 0.55 0.387886 0.5
184 1 0.575 0.436344 0.5
185 1 0.6 0.387886 0.5
186 1 0.625 0.436344 0.5
187 1 0.65 0.387886 0.5
188 1 0.675 0.436344 0.5
189 1 0.7 0.387886 0.5
190 1 0.725 0.436344 0.5
191 1 0.75 0.387886 0.5
192 1 0.775 0.436344 0.5
193 1 0.8 0.387886 0.5
194 1 0.825 0.436344 0.5
195 1 0.85 0.387886 0.5
196 1 0.875 0.436344 0.5
197 1 0.9 0.387886 0.5
198 1 0.925 0.436344 0.5
199 1 0.95 0.387886 0.5
200 1 0.975 0.436344 0.5
221 1 0.5 0.484803 0.5
222 1 0.525 0.533263 0.5
223 1 0.55 0.484803 0.5
224 1 0.575 0.533263 0.5
225 1 0.6 0.484803 0.5
226 1 0.625 0.533263 0.5
227 1 0.65 0.484803 0.5
228 1 0.675 0.533263 0.5
229 1 0.7 0.484803 0.5
230 1 0.725 0.533263 0.5
231 1 0.75 0.484803 0.5
232 1 0.775 0.533263 0.5
233 1 0.8 0.484803 0.5
234 1 0.825 0.533263 0.5
235 1 0.85 0.484803 0.5
236 1 0.875 0.533263 0.5
237 1 0.9 0.484803 0.5
238 1 0.925 0.533263 0.5
239 1 0.95 0.484803 0.5
240 1 0.975 0.533263 0.5
261 1 0.5 0.58172 0.5
262 1 0.525 0.630176 0.5
263 1 0.55 0.58172 0.5
264 1 0.575 0.630176 0.5
265 1 0.6 0.58172 0.5
266 1 0.625 0.630176 0.5
267 1 0.65 0.58172 0.5
268 1 0.675 0.630176 0.5
269 1 0.7 0.58172 0.5
270 1 0.725 0.630176 0.5
271 1 0.75 0.58172 0.5
272 1 0.775 0.630176 0.5
273 1 0.8 0.58172 0.5
274 1 0.825 0.630176 0.5
275 1 0.85 0.58172 0.5
276 1 0.875 0.630176 0.5
277 1 0.9 0.58172 0.5
278 1 0.925 0.630176 0.5
279 1 0.95 0.58172 0.5
280 1 0.975 0.630176 0.5
301 1 0.5 0.678638 0.5
302 1 0.525 0.727097 0.5
303 1 0.55 0.678638 0.5
304 1 0.575 0.727097 0.5
305 1 0.6 0.678638 0.5
306 1 0.625 0.727097 0.5
307 1 0.65 0.678638 0.5
308 1 0.675 0.727097 0.5
309 1 0.7 0.678638 0.5
310 1 0.725 0.727097 0.5
311 1 0.75 0.678638 0.5
312 1 0.775 0.727097 0.5
313 1 0.8 0.678638 0.5
314 1 0.825 0.727097 0.5
315 1 0.85 0.678638 0.5
316 1 0.875 0.727097 0.5
317 1 0.9 0.678638 0.5
318 1 0.925 0.727097 0.5
319 1 0.95 0.678638 0.5
320 1 0.975 0.727097 0.5
341 1 0.5 0.775547 0.5
342 1 0.525 0.824 0.5
343 1 0.55 0.775547 0.5
344 1 0.575 0.824 0.5
345 1 0.6 0.775547 0.5
346 1 0.625 0.824 0.5
347 1 0.65 0.775547 0.5
348 1 0.675 0.824 0.5
349 1 0.7 0.775547 0.5
350 1 0.725 0.824 0.5
351 1 0.75 0.775547 0.5
352 1 0.775 0.824 0.5
353 1 0.8 0.775547 0.5
354 1 0.825 0.824 0.5
355 1 0.85 0.775547 0.5
356 1 0.875 0.824 0.5
357 1 0.9 0.775547 0.5
358 1 0.925 0.824 0.5
359 1 0.95 0.775547 0.5
360 1 0.975 0.824 0.5
381 3 0.5 0.87243 0.5
382 3 0.525 0.920869 0.5
383 3 0.55 0.87243 0.5
384 3 0.575 0.920869 0.5
385 3 0.6 0.87243 0.5
386 3 0.625 0.920869 0.5
387 3 0.65 0.87243 0.5
388 3 0.675 0.920869 0.5
389 3 0.7 0.87243 0.5
390 3 0.725 0.920869 0.5
391 3 0.75 0.87243 0.5
392 3 0.775 0.920869 0.5
393 1 0.8 0.87243 0.5
394 1 0.825 0.920869 0.5
395 1 0.85 0.87243 0.5
396 1 0.875 0.920869 0.5
397 1 0.9 0.87243 0.5
398 1 0.925 0.920869 0.5
399 1 0.95 0.87243 0.5
400 1 0.975 0.920869 0.5
411 3 0.5 0.969507 0.5
412 3 0.587088 0.999901 0.5
413 3 0.6 0.969507 0.5
414 3 0.65 0.969507 0.5
415 3 0.7 0.969507 0.5
416 3 0.75 0.969507 0.5
417 1 0.8 0.969507 0.5
418 1 0.85 0.969507 0.5
419 1 0.9 0.969507 0.5
420 1 0.95 0.969507 0.5
ITEM: TIMESTEP
150
ITEM: NUMBER OF ATOMS
420
ITEM: BOX BOUNDS pp ss pp
0.0000000000000000e+00 2.2653923264628304e+01
2.1918578738840608e-01 2.0319551651090443e+01
-2.8317404080785380e-01 2.8317404080785380e-01
ITEM: ATOMS id type xs ys zs
1 2 0 9.76241e-05 0.5
2 2 0.025 0.0479647 0.5
3 2 0.05 9.76241e-05 0.5
4 2 0.075 0.0479647 0.5
5 2 0.1 9.76241e-05 0.5
6 2 0.125 0.0479647 0.5
7 2 0.15 9.76241e-05 0.5
8 2 0.175 0.0479647 0.5
9 2 0.2 9.76241e-05 0.5
10 2 0.225 0.0479647 0.5
11 2 0.25 9.76241e-05 0.5
12 2 0.275 0.0479647 0.5
13 2 0.3 9.76241e-05 0.5
14 2 0.325 0.0479647 0.5
15 2 0.35 9.76241e-05 0.5
16 2 0.375 0.0479647 0.5
17 2 0.4 9.76241e-05 0.5
18 2 0.425 0.0479647 0.5
19 2 0.45 9.76241e-05 0.5
20 2 0.475 0.0479647 0.5
41 2 3.57546e-18 0.0956355 0.5
42 1 0.0250037 0.143312 0.5
43 2 0.05 0.0956355 0.5
44 1 0.0750043 0.143313 0.5
45 2 0.1 0.0956355 0.5
46 1 0.125005 0.143313 0.5
47 2 0.15 0.0956355 0.5
48 1 0.175005 0.143314 0.5
49 2 0.2 0.0956355 0.5
50 1 0.225005 0.143314 0.5
51 2 0.25 0.0956355 0.5
52 1 0.275004 0.143315 0.5
53 2 0.3 0.0956355 0.5
54 1 0.325004 0.143316 0.5
55 2 0.35 0.0956355 0.5
56 1 0.375003 0.143316 0.5
57 2 0.4 0.0956355 0.5
58 1 0.425002 0.143316 0.5
59 2 0.45 0.0956355 0.5
60 1 0.475001 0.143317 0.5
411 3 0.499262 0.95437 0.5
82 1 0.025011 0.238664 0.5
83 1 0.0500079 0.190989 0.5
84 1 0.0750124 0.238666 0.5
85 1 0.100009 0.19099 0.5
86 1 0.125013 0.238668 0.5
87 1 0.150009 0.190991 0.5
88 1 0.175013 0.23867 0.5
89 1 0.200009 0.190993 0.5
90 1 0.225013 0.238673 0.5
91 1 0.250008 0.190994 0.5
92 1 0.275012 0.238676 0.5
93 1 0.300007 0.190996 0.5
94 1 0.32501 0.238678 0.5
95 1 0.350006 0.190997 0.5
96 1 0.375008 0.23868 0.5
97 1 0.400004 0.190998 0.5
98 1 0.425005 0.238681 0.5
99 1 0.450003 0.190998 0.5
100 1 0.475003 0.238681 0.5
121 1 1.38384e-05 0.286339 0.5
122 1 0.025019 0.334014 0.5
123 1 0.0500157 0.286341 0.5
124 1 0.0750205 0.334017 0.5
125 1 0.100017 0.286343 0.5
126 1 0.125021 0.334021 0.5
127 1 0.150017 0.286347 0.5
128 1 0.175021 0.334026 0.5
129 1 0.200017 0.28635 0.5
130 1 0.225021 0.334032 0.5
131 1 0.250016 0.286354 0.5
132 1 0.275019 0.334037 0.5
133 1 0.300015 0.286358 0.5
134 1 0.325017 0.334042 0.5
135 1 0.350012 0.286361 0.5
136 1 0.375014 0.334045 0.5
137 1 0.400009 0.286363 0.5
138 1 0.425011 0.334048 0.5
139 1 0.450006 0.286364 0.5
140 1 0.475007 0.334048 0.5
161 1 2.26e-05 0.381687 0.5
162 1 0.0250284 0.429362 0.5
163 1 0.0500242 0.38169 0.5
164 1 0.075029 0.429367 0.5
165 1 0.100025 0.381695 0.5
166 1 0.125029 0.429373 0.5
167 1 0.150025 0.381701 0.5
168 1 0.175029 0.429381 0.5
169 1 0.200025 0.381707 0.5
170 1 0.225028 0.429389 0.5
171 1 0.250024 0.381714 0.5
172 1 0.275028 0.429398 0.5
173 1 0.300023 0.381721 0.5
174 1 0.325027 0.429407 0.5
175 1 0.35002 0.381727 0.5
176 1 0.375024 0.429414 0.5
177 1 0.400017 0.381731 0.5
178 1 0.42502 0.429418 0.5
179 1 0.450013 0.381733 0.5
180 1 0.475015 0.42942 0.5
381 3 0.500053 0.858824 0.5
202 1 0.0250393 0.524709 0.5
203 1 0.0500335 0.477038 0.5
204 1 0.0750369 0.524716 0.5
205 1 0.100033 0.477045 0.5
206 1 0.125034 0.524724 0.5
207 1 0.150032 0.477053 0.5
208 1 0.175033 0.524733 0.5
209 1 0.200031 0.477062 0.5
210 1 0.225033 0.524744 0.5
211 1 0.250031 0.477072 0.5
212 1 0.275034 0.524756 0.5
213 1 0.300032 0.477083 0.5
214 1 0.325036 0.52477 0.5
215 1 0.350031 0.477094 0.5
216 1 0.375036 0.524784 0.5
217 1 0.400028 0.477103 0.5
218 1 0.425033 0.524794 0.5
219 1 0.450023 0.477108 0.5
220 1 0.475027 0.524799 0.5
241 1 4.704e-05 0.572379 0.5
242 1 0.0250507 0.620057 0.5
243 1 0.0500427 0.572387 0.5
244 1 0.0750427 0.620066 0.5
245 1 0.100038 0.572395 0.5
246 1 0.125035 0.620075 0.5
247 1 0.150034 0.572403 0.5
248 1 0.17503 0.620083 0.5
249 1 0.200032 0.572413 0.5
250 1 0.225029 0.620093 0.5
251 1 0.250033 0.572425 0.5
252 1 0.275032 0.620106 0.5
253 1 0.300037 0.572441 0.5
254 1 0.325039 0.620126 0.5
255 1 0.350041 0.572459 0.5
256 1 0.375046 0.620151 0.5
257 1 0.400042 0.572477 0.5
258 1 0.425049 0.620175 0.5
259 1 0.450039 0.57249 0.5
260 1 0.475044 0.620191 0.5
281 1 6.1724e-05 0.667728 0.5
282 1 0.0250607 0.715412 0.5
283 1 0.0500502 0.667739 0.5
284 1 0.0750448 0.715422 0.5
285 1 0.100039 0.667747 0.5
286 1 0.12503 0.715429 0.5
287 1 0.150029 0.667754 0.5
288 1 0.175018 0.715434 0.5
289 1 0.200023 0.667761 0.5
290 1 0.225011 0.715438 0.5
291 1 0.250022 0.667771 0.5
292 1 0.27501 0.715447 0.5
293 1 0.300028 0.667786 0.5
294 1 0.325019 0.715465 0.5
295 1 0.350039 0.667812 0.5
296 1 0.375037 0.7155 0.5
297 1 0.400052 0.667847 0.5
298 1 0.425058 0.715552 0.5
299 1 0.450057 0.667881 0.5
300 1 0.475065 0.7156 0.5
321 1 7.46181e-05 0.763086 0.5
322 1 0.0250664 0.810777 0.5
323 1 0.0500542 0.763099 0.5
324 1 0.0750424 0.810788 0.5
325 1 0.100035 0.763107 0.5
326 1 0.12502 0.810792 0.5
327 1 0.150017 0.763111 0.5
328 1 0.174998 0.810792 0.5
329 1 0.200002 0.763112 0.5
330 1 0.22498 0.810789 0.5
331 1 0.249992 0.763113 0.5
332 1 0.274965 0.810786 0.5
333 1 0.299991 0.76312 0.5
334 1 0.324959 0.810791 0.5
335 1 0.350001 0.763141 0.5
336 1 0.374967 0.810815 0.5
337 1 0.400027 0.763189 0.5
338 1 0.425002 0.810881 0.5
339 1 0.450063 0.763273 0.5
340 1 0.475064 0.81102 0.5
361 1 8.07032e-05 0.858456 0.5
362 1 0.0250642 0.906154 0.5
363 1 0.0500529 0.858469 0.5
364 1 0.0750359 0.906164 0.5
365 1 0.100027 0.858476 0.5
366 1 0.125008 0.906168 0.5
367 1 0.150001 0.858477 0.5
368 1 0.17498 0.906165 0.5
369 1 0.199975 0.858473 0.5
370 1 0.224948 0.906159 0.5
371 1 0.249949 0.858466 0.5
372 1 0.274911 0.906149 0.5
373 1 0.299925 0.85846 0.5
374 1 0.324867 0.906142 0.5
375 1 0.349905 0.858462 0.5
376 1 0.374817 0.906144 0.5
377 1 0.399902 0.858489 0.5
378 1 0.424769 0.906174 0.5
379 3 0.449937 0.858576 0.5
380 3 0.474756 0.906288 0.5
401 1 7.42193e-05 0.954039 0.5
402 1 0.0500451 0.954051 0.5
403 1 0.100018 0.954058 0.5
404 1 0.14999 0.954059 0.5
405 1 0.199958 0.954055 0.5
406 1 0.249918 0.954049 0.5
407 1 0.299863 0.954042 0.5
408 1 0.349786 0.954041 0.5
409 1 0.39967 0.954057 0.5
410 3 0.449489 0.954118 0.5
301 1 0.50005 0.667901 0.5
141 1 0.500003 0.286364 0.5
181 1 0.500008 0.381733 0.5
221 1 0.500017 0.477108 0.5
261 1 0.50003 0.572495 0.5
341 1 0.500071 0.763339 0.5
21 2 0.5 9.76241e-05 0.5
22 2 0.525 0.0479647 0.5
23 2 0.55 9.76241e-05 0.5
24 2 0.575 0.0479647 0.5
25 2 0.6 9.76241e-05 0.5
26 2 0.625 0.0479647 0.5
27 2 0.65 9.76241e-05 0.5
28 2 0.675 0.0479647 0.5
29 2 0.7 9.76241e-05 0.5
30 2 0.725 0.0479647 0.5
31 2 0.75 9.76241e-05 0.5
32 2 0.775 0.0479647 0.5
33 2 0.8 9.76241e-05 0.5
34 2 0.825 0.0479647 0.5
35 2 0.85 9.76241e-05 0.5
36 2 0.875 0.0479647 0.5
37 2 0.9 9.76241e-05 0.5
38 2 0.925 0.0479647 0.5
39 2 0.95 9.76241e-05 0.5
40 2 0.975 0.0479647 0.5
61 2 0.5 0.0956355 0.5
62 1 0.525 0.143316 0.5
63 2 0.55 0.0956355 0.5
64 1 0.574999 0.143316 0.5
65 2 0.6 0.0956355 0.5
66 1 0.624999 0.143316 0.5
67 2 0.65 0.0956355 0.5
68 1 0.674999 0.143315 0.5
69 2 0.7 0.0956355 0.5
70 1 0.724999 0.143315 0.5
71 2 0.75 0.0956355 0.5
72 1 0.774999 0.143314 0.5
73 2 0.8 0.0956355 0.5
74 1 0.825 0.143313 0.5
75 2 0.85 0.0956355 0.5
76 1 0.875001 0.143313 0.5
77 2 0.9 0.0956355 0.5
78 1 0.925002 0.143312 0.5
79 2 0.95 0.0956355 0.5
80 1 0.975003 0.143312 0.5
101 1 0.500001 0.190998 0.5
102 1 0.525001 0.23868 0.5
103 1 0.549999 0.190998 0.5
104 1 0.574999 0.238679 0.5
105 1 0.599998 0.190997 0.5
106 1 0.624998 0.238677 0.5
107 1 0.649998 0.190996 0.5
108 1 0.674998 0.238675 0.5
109 1 0.699998 0.190994 0.5
110 1 0.724998 0.238672 0.5
111 1 0.749999 0.190993 0.5
112 1 0.775 0.23867 0.5
113 1 0.8 0.190991 0.5
114 1 0.825002 0.238667 0.5
115 1 0.850001 0.19099 0.5
116 1 0.875004 0.238666 0.5
117 1 0.900003 0.190989 0.5
118 1 0.925007 0.238664 0.5
119 1 0.950005 0.190989 0.5
120 1 0.975009 0.238664 0.5
417 1 0.800279 0.953964 0.5
142 1 0.525004 0.334047 0.5
143 1 0.550001 0.286362 0.5
144 1 0.575001 0.334044 0.5
145 1 0.599999 0.28636 0.5
146 1 0.624999 0.33404 0.5
147 1 0.649998 0.286356 0.5
148 1 0.674998 0.334035 0.5
149 1 0.699998 0.286353 0.5
150 1 0.725 0.334029 0.5
151 1 0.75 0.286349 0.5
152 1 0.775002 0.334024 0.5
153 1 0.800002 0.286345 0.5
154 1 0.825006 0.334019 0.5
155 1 0.850005 0.286342 0.5
156 1 0.87501 0.334015 0.5
157 1 0.900008 0.28634 0.5
158 1 0.925014 0.334013 0.5
159 1 0.950011 0.286339 0.5
160 1 0.975017 0.334013 0.5
416 3 0.750378 0.953955 0.5
182 1 0.525009 0.429418 0.5
183 1 0.550004 0.38173 0.5
184 1 0.575004 0.429413 0.5
185 1 0.600001 0.381725 0.5
186 1 0.625001 0.429405 0.5
187 1 0.649999 0.381719 0.5
188 1 0.675001 0.429396 0.5
189 1 0.7 0.381711 0.5
190 1 0.725003 0.429385 0.5
191 1 0.750003 0.381704 0.5
192 1 0.775008 0.429375 0.5
193 1 0.800007 0.381697 0.5
194 1 0.825013 0.429367 0.5
195 1 0.850011 0.381691 0.5
196 1 0.875019 0.429361 0.5
197 1 0.900016 0.381688 0.5
198 1 0.925024 0.429359 0.5
199 1 0.95002 0.381686 0.5
200 1 0.975027 0.429359 0.5
415 3 0.70052 0.953966 0.5
222 1 0.525019 0.524798 0.5
223 1 0.55001 0.477104 0.5
224 1 0.575011 0.52479 0.5
225 1 0.600005 0.477096 0.5
226 1 0.625006 0.524776 0.5
227 1 0.650003 0.477084 0.5
228 1 0.675006 0.524758 0.5
229 1 0.700004 0.47707 0.5
230 1 0.725011 0.524739 0.5
231 1 0.750009 0.477056 0.5
232 1 0.775019 0.524721 0.5
233 1 0.800016 0.477044 0.5
234 1 0.825028 0.524709 0.5
235 1 0.850023 0.477035 0.5
236 1 0.875035 0.524702 0.5
237 1 0.900028 0.477031 0.5
238 1 0.925039 0.524701 0.5
239 1 0.950032 0.477031 0.5
240 1 0.97504 0.524704 0.5
414 3 0.65073 0.954054 0.5
262 1 0.525033 0.620194 0.5
263 1 0.55002 0.57249 0.5
264 1 0.575021 0.620182 0.5
265 1 0.600012 0.572476 0.5
266 1 0.625014 0.620156 0.5
267 1 0.650009 0.572453 0.5
268 1 0.675017 0.62012 0.5
269 1 0.700013 0.572427 0.5
270 1 0.725029 0.620085 0.5
271 1 0.750023 0.572402 0.5
272 1 0.775044 0.620057 0.5
273 1 0.800034 0.572383 0.5
274 1 0.825055 0.620042 0.5
275 1 0.850044 0.572372 0.5
276 1 0.875061 0.620038 0.5
277 1 0.900049 0.57237 0.5
278 1 0.925062 0.620041 0.5
279 1 0.950049 0.572373 0.5
280 1 0.975058 0.620049 0.5
420 1 0.950109 0.954022 0.5
302 1 0.525053 0.71562 0.5
303 1 0.550034 0.667898 0.5
304 1 0.575035 0.7156 0.5
305 1 0.600022 0.66787 0.5
306 1 0.625031 0.715544 0.5
307 1 0.650022 0.667825 0.5
308 1 0.675049 0.715471 0.5
309 1 0.700037 0.667774 0.5
310 1 0.725078 0.715407 0.5
311 1 0.750058 0.667732 0.5
312 1 0.775097 0.715377 0.5
313 1 0.800072 0.66771 0.5
314 1 0.825103 0.715368 0.5
315 1 0.850079 0.667704 0.5
316 1 0.8751 0.715373 0.5
317 1 0.900078 0.667708 0.5
318 1 0.92509 0.715385 0.5
319 1 0.950072 0.667717 0.5
320 1 0.975076 0.715399 0.5
413 3 0.601198 0.953877 0.5
342 1 0.525072 0.811104 0.5
343 1 0.550054 0.763348 0.5
344 1 0.575064 0.811068 0.5
345 1 0.600043 0.763288 0.5
346 1 0.625091 0.810923 0.5
347 1 0.650066 0.763183 0.5
348 1 0.675172 0.810754 0.5
349 1 0.700112 0.763082 0.5
350 1 0.72519 0.810707 0.5
351 1 0.750133 0.763042 0.5
352 1 0.775185 0.810695 0.5
353 1 0.800137 0.763032 0.5
354 1 0.825167 0.810703 0.5
355 1 0.850128 0.763038 0.5
356 1 0.875143 0.810721 0.5
357 1 0.900114 0.763053 0.5
358 1 0.925117 0.810742 0.5
359 1 0.950095 0.76307 0.5
360 1 0.975092 0.810761 0.5
419 1 0.900151 0.954002 0.5
382 3 0.525027 0.9068 0.5
383 3 0.550084 0.858884 0.5
384 3 0.575204 0.906708 0.5
385 3 0.600133 0.85872 0.5
386 3 0.625555 0.906049 0.5
387 3 0.650287 0.858412 0.5
388 3 0.675445 0.906069 0.5
389 3 0.700283 0.858375 0.5
390 3 0.725361 0.906046 0.5
391 3 0.750255 0.858362 0.5
392 3 0.775287 0.906053 0.5
393 1 0.800218 0.858372 0.5
394 1 0.825225 0.906071 0.5
395 1 0.85018 0.858392 0.5
396 1 0.875174 0.906094 0.5
397 1 0.900144 0.858415 0.5
398 1 0.925131 0.906118 0.5
399 1 0.950111 0.858437 0.5
400 1 0.975095 0.906138 0.5
418 1 0.850206 0.953981 0.5
412 3 0.579508 1.00358 0.5
81 1 1.00001 0.190989 0.5
201 1 1.00003 0.477033 0.5
ITEM: TIMESTEP
182
ITEM: NUMBER OF ATOMS
420
ITEM: BOX BOUNDS pp ss pp
0.0000000000000000e+00 2.2653923264628304e+01
2.1918578738840608e-01 2.0393490580201760e+01
-2.8317404080785380e-01 2.8317404080785380e-01
ITEM: ATOMS id type xs ys zs
1 2 0 9.72663e-05 0.5
2 2 0.025 0.0477889 0.5
3 2 0.05 9.72663e-05 0.5
4 2 0.075 0.0477889 0.5
5 2 0.1 9.72663e-05 0.5
6 2 0.125 0.0477889 0.5
7 2 0.15 9.72663e-05 0.5
8 2 0.175 0.0477889 0.5
9 2 0.2 9.72663e-05 0.5
10 2 0.225 0.0477889 0.5
11 2 0.25 9.72663e-05 0.5
12 2 0.275 0.0477889 0.5
13 2 0.3 9.72663e-05 0.5
14 2 0.325 0.0477889 0.5
15 2 0.35 9.72663e-05 0.5
16 2 0.375 0.0477889 0.5
17 2 0.4 9.72663e-05 0.5
18 2 0.425 0.0477889 0.5
19 2 0.45 9.72663e-05 0.5
20 2 0.475 0.0477889 0.5
41 2 3.57546e-18 0.095285 0.5
42 1 0.0250038 0.142787 0.5
43 2 0.05 0.095285 0.5
44 1 0.0750049 0.142787 0.5
45 2 0.1 0.095285 0.5
46 1 0.125006 0.142787 0.5
47 2 0.15 0.095285 0.5
48 1 0.175006 0.142788 0.5
49 2 0.2 0.095285 0.5
50 1 0.225006 0.142789 0.5
51 2 0.25 0.095285 0.5
52 1 0.275006 0.14279 0.5
53 2 0.3 0.095285 0.5
54 1 0.325005 0.14279 0.5
55 2 0.35 0.095285 0.5
56 1 0.375005 0.142791 0.5
57 2 0.4 0.095285 0.5
58 1 0.425004 0.142791 0.5
59 2 0.45 0.095285 0.5
60 1 0.475002 0.142792 0.5
411 3 0.499246 0.950896 0.5
82 1 0.0250115 0.237788 0.5
83 1 0.0500086 0.190288 0.5
84 1 0.075014 0.237789 0.5
85 1 0.10001 0.190289 0.5
86 1 0.125016 0.237791 0.5
87 1 0.150011 0.19029 0.5
88 1 0.175017 0.237794 0.5
89 1 0.200012 0.190292 0.5
90 1 0.225017 0.237797 0.5
91 1 0.250012 0.190294 0.5
92 1 0.275017 0.2378 0.5
93 1 0.300011 0.190296 0.5
94 1 0.325015 0.237803 0.5
95 1 0.35001 0.190297 0.5
96 1 0.375013 0.237805 0.5
97 1 0.400008 0.190298 0.5
98 1 0.42501 0.237807 0.5
99 1 0.450006 0.190299 0.5
100 1 0.475007 0.237808 0.5
121 1 1.38934e-05 0.285287 0.5
122 1 0.0250198 0.332786 0.5
123 1 0.0500171 0.285288 0.5
124 1 0.0750229 0.332788 0.5
125 1 0.10002 0.28529 0.5
126 1 0.125025 0.332792 0.5
127 1 0.150021 0.285294 0.5
128 1 0.175027 0.332798 0.5
129 1 0.200022 0.285298 0.5
130 1 0.225028 0.332804 0.5
131 1 0.250022 0.285303 0.5
132 1 0.275027 0.332811 0.5
133 1 0.300021 0.285307 0.5
134 1 0.325026 0.332817 0.5
135 1 0.350019 0.285311 0.5
136 1 0.375023 0.332822 0.5
137 1 0.400016 0.285314 0.5
138 1 0.425019 0.332825 0.5
139 1 0.450012 0.285316 0.5
140 1 0.475014 0.332827 0.5
161 1 2.25891e-05 0.380283 0.5
162 1 0.0250292 0.427781 0.5
163 1 0.050026 0.380285 0.5
164 1 0.0750318 0.427785 0.5
165 1 0.100029 0.38029 0.5
166 1 0.125034 0.427792 0.5
167 1 0.150031 0.380296 0.5
168 1 0.175035 0.4278 0.5
169 1 0.200032 0.380303 0.5
170 1 0.225037 0.42781 0.5
171 1 0.250033 0.380312 0.5
172 1 0.275037 0.427821 0.5
173 1 0.300032 0.38032 0.5
174 1 0.325037 0.427832 0.5
175 1 0.35003 0.380328 0.5
176 1 0.375034 0.427841 0.5
177 1 0.400026 0.380334 0.5
178 1 0.425029 0.427848 0.5
179 1 0.450021 0.380338 0.5
180 1 0.475023 0.427852 0.5
410 3 0.449473 0.950636 0.5
202 1 0.0250399 0.522775 0.5
203 1 0.0500353 0.47528 0.5
204 1 0.0750396 0.522781 0.5
205 1 0.100036 0.475286 0.5
206 1 0.125039 0.522789 0.5
207 1 0.150038 0.475295 0.5
208 1 0.17504 0.522799 0.5
209 1 0.200039 0.475305 0.5
210 1 0.225042 0.522812 0.5
211 1 0.250041 0.475318 0.5
212 1 0.275044 0.522827 0.5
213 1 0.300042 0.475332 0.5
214 1 0.325047 0.522845 0.5
215 1 0.350042 0.475345 0.5
216 1 0.375047 0.522862 0.5
217 1 0.400039 0.475357 0.5
218 1 0.425043 0.522876 0.5
219 1 0.450033 0.475365 0.5
220 1 0.475035 0.522885 0.5
241 1 4.66496e-05 0.570269 0.5
242 1 0.0250512 0.61777 0.5
243 1 0.0500442 0.570275 0.5
244 1 0.0750451 0.617777 0.5
245 1 0.100041 0.570283 0.5
246 1 0.12504 0.617786 0.5
247 1 0.15004 0.570292 0.5
248 1 0.175036 0.617796 0.5
249 1 0.20004 0.570304 0.5
250 1 0.225036 0.617808 0.5
251 1 0.250042 0.570319 0.5
252 1 0.27504 0.617826 0.5
253 1 0.300047 0.570338 0.5
254 1 0.325048 0.617851 0.5
255 1 0.350051 0.570361 0.5
256 1 0.375056 0.61788 0.5
257 1 0.400052 0.570383 0.5
258 1 0.425058 0.61791 0.5
259 1 0.450048 0.570401 0.5
260 1 0.475052 0.617931 0.5
281 1 6.15925e-05 0.665266 0.5
282 1 0.0250615 0.712772 0.5
283 1 0.0500515 0.665274 0.5
284 1 0.0750466 0.71278 0.5
285 1 0.100042 0.665282 0.5
286 1 0.125033 0.712787 0.5
287 1 0.150033 0.66529 0.5
288 1 0.175022 0.712794 0.5
289 1 0.200028 0.665299 0.5
290 1 0.225015 0.712802 0.5
291 1 0.250029 0.665312 0.5
292 1 0.275015 0.712815 0.5
293 1 0.300035 0.665333 0.5
294 1 0.325024 0.71284 0.5
295 1 0.350047 0.665365 0.5
296 1 0.375042 0.712881 0.5
297 1 0.40006 0.665406 0.5
298 1 0.425063 0.71294 0.5
299 1 0.450064 0.665446 0.5
300 1 0.47507 0.712994 0.5
321 1 7.56226e-05 0.760271 0.5
322 1 0.0250683 0.807785 0.5
323 1 0.0500555 0.760281 0.5
324 1 0.0750438 0.807793 0.5
325 1 0.100036 0.760289 0.5
326 1 0.12502 0.807798 0.5
327 1 0.150019 0.760294 0.5
328 1 0.174998 0.8078 0.5
329 1 0.200004 0.760297 0.5
330 1 0.224979 0.807801 0.5
331 1 0.249994 0.760303 0.5
332 1 0.274964 0.807804 0.5
333 1 0.299993 0.760316 0.5
334 1 0.324957 0.807815 0.5
335 1 0.350004 0.760344 0.5
336 1 0.374966 0.807847 0.5
337 1 0.40003 0.7604 0.5
338 1 0.425001 0.807921 0.5
339 1 0.450066 0.76049 0.5
340 1 0.475064 0.808067 0.5
361 1 8.41269e-05 0.85529 0.5
362 1 0.0250682 0.902811 0.5
363 1 0.0500549 0.8553 0.5
364 1 0.0750373 0.902819 0.5
365 1 0.100027 0.855307 0.5
366 1 0.125007 0.902824 0.5
367 1 0.15 0.855309 0.5
368 1 0.174976 0.902824 0.5
369 1 0.199972 0.855308 0.5
370 1 0.224941 0.902821 0.5
371 1 0.249945 0.855306 0.5
372 1 0.274902 0.902818 0.5
373 1 0.299919 0.855306 0.5
374 1 0.324857 0.902817 0.5
375 1 0.349899 0.855315 0.5
376 1 0.374806 0.902826 0.5
377 1 0.399896 0.85535 0.5
378 1 0.424759 0.902864 0.5
379 3 0.449933 0.855445 0.5
380 3 0.474747 0.902986 0.5
401 1 8.1593e-05 0.950523 0.5
402 1 0.0500487 0.950533 0.5
403 1 0.100018 0.950539 0.5
404 1 0.149986 0.950541 0.5
405 1 0.19995 0.950541 0.5
406 1 0.249906 0.950539 0.5
407 1 0.299849 0.950538 0.5
408 1 0.349769 0.950544 0.5
409 1 0.399653 0.950567 0.5
81 1 6.58812e-06 0.190288 0.5
201 1 3.3393e-05 0.475277 0.5
21 2 0.5 9.72663e-05 0.5
22 2 0.525 0.0477889 0.5
23 2 0.55 9.72663e-05 0.5
24 2 0.575 0.0477889 0.5
25 2 0.6 9.72663e-05 0.5
26 2 0.625 0.0477889 0.5
27 2 0.65 9.72663e-05 0.5
28 2 0.675 0.0477889 0.5
29 2 0.7 9.72663e-05 0.5
30 2 0.725 0.0477889 0.5
31 2 0.75 9.72663e-05 0.5
32 2 0.775 0.0477889 0.5
33 2 0.8 9.72663e-05 0.5
34 2 0.825 0.0477889 0.5
35 2 0.85 9.72663e-05 0.5
36 2 0.875 0.0477889 0.5
37 2 0.9 9.72663e-05 0.5
38 2 0.925 0.0477889 0.5
39 2 0.95 9.72663e-05 0.5
40 2 0.975 0.0477889 0.5
61 2 0.5 0.095285 0.5
62 1 0.525001 0.142792 0.5
63 2 0.55 0.095285 0.5
64 1 0.575 0.142791 0.5
65 2 0.6 0.095285 0.5
66 1 0.624999 0.142791 0.5
67 2 0.65 0.095285 0.5
68 1 0.674999 0.14279 0.5
69 2 0.7 0.095285 0.5
70 1 0.724999 0.14279 0.5
71 2 0.75 0.095285 0.5
72 1 0.774999 0.142789 0.5
73 2 0.8 0.095285 0.5
74 1 0.824999 0.142788 0.5
75 2 0.85 0.095285 0.5
76 1 0.875 0.142787 0.5
77 2 0.9 0.095285 0.5
78 1 0.925001 0.142787 0.5
79 2 0.95 0.095285 0.5
80 1 0.975003 0.142787 0.5
101 1 0.500004 0.190299 0.5
102 1 0.525004 0.237807 0.5
103 1 0.550001 0.190298 0.5
104 1 0.575001 0.237806 0.5
105 1 0.6 0.190297 0.5
106 1 0.624999 0.237805 0.5
107 1 0.649998 0.190296 0.5
108 1 0.674998 0.237802 0.5
109 1 0.699998 0.190295 0.5
110 1 0.724998 0.237799 0.5
111 1 0.749998 0.190293 0.5
112 1 0.774998 0.237796 0.5
113 1 0.799999 0.190291 0.5
114 1 0.825 0.237793 0.5
115 1 0.85 0.19029 0.5
116 1 0.875003 0.23779 0.5
117 1 0.900002 0.190289 0.5
118 1 0.925006 0.237788 0.5
119 1 0.950004 0.190288 0.5
120 1 0.975009 0.237787 0.5
417 1 0.800294 0.950473 0.5
142 1 0.525009 0.332827 0.5
143 1 0.550004 0.285315 0.5
144 1 0.575004 0.332824 0.5
145 1 0.600001 0.285313 0.5
146 1 0.625001 0.33282 0.5
147 1 0.649999 0.28531 0.5
148 1 0.674999 0.332815 0.5
149 1 0.699998 0.285305 0.5
150 1 0.724999 0.332809 0.5
151 1 0.749998 0.285301 0.5
152 1 0.775 0.332802 0.5
153 1 0.8 0.285296 0.5
154 1 0.825003 0.332796 0.5
155 1 0.850003 0.285292 0.5
156 1 0.875007 0.33279 0.5