ITEM: TIMESTEP
0
ITEM: NUMBER OF ATOMS
420
ITEM: BOX BOUNDS pp ss pp
0.0000000000000000e+00 2.2653923264628304e+01
2.1918578738840608e-01 2.0101134998038550e+01
-2.8317404080785380e-01 2.8317404080785380e-01
ITEM: ATOMS id type xs ys zs
1 2 0 9.86965e-05 0.5
2 2 0.025 0.0484916 0.5
3 2 0.05 9.86965e-05 0.5
4 2 0.075 0.0484916 0.5
5 2 0.1 9.86965e-05 0.5
6 2 0.125 0.0484916 0.5
7 2 0.15 9.86965e-05 0.5
8 2 0.175 0.0484916 0.5
9 2 0.2 9.86965e-05 0.5
10 2 0.225 0.0484916 0.5
11 2 0.25 9.86965e-05 0.5
12 2 0.275 0.0484916 0.5
13 2 0.3 9.86965e-05 0.5
14 2 0.325 0.0484916 0.5
15 2 0.35 9.86965e-05 0.5
16 2 0.375 0.0484916 0.5
17 2 0.4 9.86965e-05 0.5
18 2 0.425 0.0484916 0.5
19 2 0.45 9.86965e-05 0.5
20 2 0.475 0.0484916 0.5
41 2 3.57546e-18 0.0966861 0.5
42 1 0.025 0.144872 0.5
43 2 0.05 0.0966861 0.5
44 1 0.075 0.144872 0.5
45 2 0.1 0.0966861 0.5
46 1 0.125 0.144872 0.5
47 2 0.15 0.0966861 0.5
48 1 0.175 0.144872 0.5
49 2 0.2 0.0966861 0.5
50 1 0.225 0.144872 0.5
51 2 0.25 0.0966861 0.5
52 1 0.275 0.144872 0.5
53 2 0.3 0.0966861 0.5
54 1 0.325 0.144872 0.5
55 2 0.35 0.0966861 0.5
56 1 0.375 0.144872 0.5
57 2 0.4 0.0966861 0.5
58 1 0.425 0.144872 0.5
59 2 0.45 0.0966861 0.5
60 1 0.475 0.144872 0.5
81 1 2.74429e-20 0.193081 0.5
82 1 0.025 0.241287 0.5
83 1 0.05 0.193081 0.5
84 1 0.075 0.241287 0.5
85 1 0.1 0.193081 0.5
86 1 0.125 0.241287 0.5
87 1 0.15 0.193081 0.5
88 1 0.175 0.241287 0.5
89 1 0.2 0.193081 0.5
90 1 0.225 0.241287 0.5
91 1 0.25 0.193081 0.5
92 1 0.275 0.241287 0.5
93 1 0.3 0.193081 0.5
94 1 0.325 0.241287 0.5
95 1 0.35 0.193081 0.5
96 1 0.375 0.241287 0.5
97 1 0.4 0.193081 0.5
98 1 0.425 0.241287 0.5
99 1 0.45 0.193081 0.5
100 1 0.475 0.241287 0.5
121 1 0 0.289501 0.5
122 1 0.025 0.337719 0.5
123 1 0.05 0.289501 0.5
124 1 0.075 0.337719 0.5
125 1 0.1 0.289501 0.5
126 1 0.125 0.337719 0.5
127 1 0.15 0.289501 0.5
128 1 0.175 0.337719 0.5
129 1 0.2 0.289501 0.5
130 1 0.225 0.337719 0.5
131 1 0.25 0.289501 0.5
132 1 0.275 0.337719 0.5
133 1 0.3 0.289501 0.5
134 1 0.325 0.337719 0.5
135 1 0.35 0.289501 0.5
136 1 0.375 0.337719 0.5
137 1 0.4 0.289501 0.5
138 1 0.425 0.337719 0.5
139 1 0.45 0.289501 0.5
140 1 0.475 0.337719 0.5
161 1 0 0.385931 0.5
162 1 0.025 0.434144 0.5
163 1 0.05 0.385931 0.5
164 1 0.075 0.434144 0.5
165 1 0.1 0.385931 0.5
166 1 0.125 0.434144 0.5
167 1 0.15 0.385931 0.5
168 1 0.175 0.434144 0.5
169 1 0.2 0.385931 0.5
170 1 0.225 0.434144 0.5
171 1 0.25 0.385931 0.5
172 1 0.275 0.434144 0.5
173 1 0.3 0.385931 0.5
174 1 0.325 0.434144 0.5
175 1 0.35 0.385931 0.5
176 1 0.375 0.434144 0.5
177 1 0.4 0.385931 0.5
178 1 0.425 0.434144 0.5
179 1 0.45 0.385931 0.5
180 1 0.475 0.434144 0.5
201 1 0 0.48236 0.5
202 1 0.025 0.530575 0.5
203 1 0.05 0.48236 0.5
204 1 0.075 0.530575 0.5
205 1 0.1 0.48236 0.5
206 1 0.125 0.530575 0.5
207 1 0.15 0.48236 0.5
208 1 0.175 0.530575 0.5
209 1 0.2 0.48236 0.5
210 1 0.225 0.530575 0.5
211 1 0.25 0.48236 0.5
212 1 0.275 0.530575 0.5
213 1 0.3 0.48236 0.5
214 1 0.325 0.530575 0.5
215 1 0.35 0.48236 0.5
216 1 0.375 0.530575 0.5
217 1 0.4 0.48236 0.5
218 1 0.425 0.530575 0.5
219 1 0.45 0.48236 0.5
220 1 0.475 0.530575 0.5
241 1 0 0.578788 0.5
242 1 0.025 0.627 0.5
243 1 0.05 0.578788 0.5
244 1 0.075 0.627 0.5
245 1 0.1 0.578788 0.5
246 1 0.125 0.627 0.5
247 1 0.15 0.578788 0.5
248 1 0.175 0.627 0.5
249 1 0.2 0.578788 0.5
250 1 0.225 0.627 0.5
251 1 0.25 0.578788 0.5
252 1 0.275 0.627 0.5
253 1 0.3 0.578788 0.5
254 1 0.325 0.627 0.5
255 1 0.35 0.578788 0.5
256 1 0.375 0.627 0.5
257 1 0.4 0.578788 0.5
258 1 0.425 0.627 0.5
259 1 0.45 0.578788 0.5
260 1 0.475 0.627 0.5
281 1 2.18851e-18 0.675218 0.5
282 1 0.025 0.723432 0.5
283 1 0.05 0.675218 0.5
284 1 0.075 0.723432 0.5
285 1 0.1 0.675218 0.5
286 1 0.125 0.723432 0.5
287 1 0.15 0.675218 0.5
288 1 0.175 0.723432 0.5
289 1 0.2 0.675218 0.5
290 1 0.225 0.723432 0.5
291 1 0.25 0.675218 0.5
292 1 0.275 0.723432 0.5
293 1 0.3 0.675218 0.5
294 1 0.325 0.723432 0.5
295 1 0.35 0.675218 0.5
296 1 0.375 0.723432 0.5
297 1 0.4 0.675218 0.5
298 1 0.425 0.723432 0.5
299 1 0.45 0.675218 0.5
300 1 0.475 0.723432 0.5
321 1 0 0.771638 0.5
322 1 0.025 0.819847 0.5
323 1 0.05 0.771638 0.5
324 1 0.075 0.819847 0.5
325 1 0.1 0.771638 0.5
326 1 0.125 0.819847 0.5
327 1 0.15 0.771638 0.5
328 1 0.175 0.819847 0.5
329 1 0.2 0.771638 0.5
330 1 0.225 0.819847 0.5
331 1 0.25 0.771638 0.5
332 1 0.275 0.819847 0.5
333 1 0.3 0.771638 0.5
334 1 0.325 0.819847 0.5
335 1 0.35 0.771638 0.5
336 1 0.375 0.819847 0.5
337 1 0.4 0.771638 0.5
338 1 0.425 0.819847 0.5
339 1 0.45 0.771638 0.5
340 1 0.475 0.819847 0.5
361 1 5.74281e-19 0.868033 0.5
362 1 0.025 0.916228 0.5
363 1 0.05 0.868033 0.5
364 1 0.075 0.916228 0.5
365 1 0.1 0.868033 0.5
366 1 0.125 0.916228 0.5
367 1 0.15 0.868033 0.5
368 1 0.175 0.916228 0.5
369 1 0.2 0.868033 0.5
370 1 0.225 0.916228 0.5
371 1 0.25 0.868033 0.5
372 1 0.275 0.916228 0.5
373 1 0.3 0.868033 0.5
374 1 0.325 0.916228 0.5
375 1 0.35 0.868033 0.5
376 1 0.375 0.916228 0.5
377 1 0.4 0.868033 0.5
378 1 0.425 0.916228 0.5
379 3 0.45 0.868033 0.5
380 3 0.475 0.916228 0.5
401 1 3.60804e-19 0.964621 0.5
402 1 0.05 0.964621 0.5
403 1 0.1 0.964621 0.5
404 1 0.15 0.964621 0.5
405 1 0.2 0.964621 0.5
406 1 0.25 0.964621 0.5
407 1 0.3 0.964621 0.5
408 1 0.35 0.964621 0.5
409 1 0.4 0.964621 0.5
410 3 0.45 0.964621 0.5
21 2 0.5 9.86965e-05 0.5
22 2 0.525 0.0484916 0.5
23 2 0.55 9.86965e-05 0.5
24 2 0.575 0.0484916 0.5
25 2 0.6 9.86965e-05 0.5
26 2 0.625 0.0484916 0.5
27 2 0.65 9.86965e-05 0.5
28 2 0.675 0.0484916 0.5
29 2 0.7 9.86965e-05 0.5
30 2 0.725 0.0484916 0.5
31 2 0.75 9.86965e-05 0.5
32 2 0.775 0.0484916 0.5
33 2 0.8 9.86965e-05 0.5
34 2 0.825 0.0484916 0.5
35 2 0.85 9.86965e-05 0.5
36 2 0.875 0.0484916 0.5
37 2 0.9 9.86965e-05 0.5
38 2 0.925 0.0484916 0.5
39 2 0.95 9.86965e-05 0.5
40 2 0.975 0.0484916 0.5
61 2 0.5 0.0966861 0.5
62 1 0.525 0.144872 0.5
63 2 0.55 0.0966861 0.5
64 1 0.575 0.144872 0.5
65 2 0.6 0.0966861 0.5
66 1 0.625 0.144872 0.5
67 2 0.65 0.0966861 0.5
68 1 0.675 0.144872 0.5
69 2 0.7 0.0966861 0.5
70 1 0.725 0.144872 0.5
71 2 0.75 0.0966861 0.5
72 1 0.775 0.144872 0.5
73 2 0.8 0.0966861 0.5
74 1 0.825 0.144872 0.5
75 2 0.85 0.0966861 0.5
76 1 0.875 0.144872 0.5
77 2 0.9 0.0966861 0.5
78 1 0.925 0.144872 0.5
79 2 0.95 0.0966861 0.5
80 1 0.975 0.144872 0.5
101 1 0.5 0.193081 0.5
102 1 0.525 0.241287 0.5
103 1 0.55 0.193081 0.5
104 1 0.575 0.241287 0.5
105 1 0.6 0.193081 0.5
106 1 0.625 0.241287 0.5
107 1 0.65 0.193081 0.5
108 1 0.675 0.241287 0.5
109 1 0.7 0.193081 0.5
110 1 0.725 0.241287 0.5
111 1 0.75 0.193081 0.5
112 1 0.775 0.241287 0.5
113 1 0.8 0.193081 0.5
114 1 0.825 0.241287 0.5
115 1 0.85 0.193081 0.5
116 1 0.875 0.241287 0.5
117 1 0.9 0.193081 0.5
118 1 0.925 0.241287 0.5
119 1 0.95 0.193081 0.5
120 1 0.975 0.241287 0.5
141 1 0.5 0.289501 0.5
142 1 0.525 0.337719 0.5
143 1 0.55 0.289501 0.5
144 1 0.575 0.337719 0.5
145 1 0.6 0.289501 0.5
146 1 0.625 0.337719 0.5
147 1 0.65 0.289501 0.5
148 1 0.675 0.337719 0.5
149 1 0.7 0.289501 0.5
150 1 0.725 0.337719 0.5
151 1 0.75 0.289501 0.5
152 1 0.775 0.337719 0.5
153 1 0.8 0.289501 0.5
154 1 0.825 0.337719 0.5
155 1 0.85 0.289501 0.5
156 1 0.875 0.337719 0.5
157 1 0.9 0.289501 0.5
158 1 0.925 0.337719 0.5
159 1 0.95 0.289501 0.5
160 1 0.975 0.337719 0.5
181 1 0.5 0.385931 0.5
182 1 0.525 0.434144 0.5
183 1 0.55 0.385931 0.5
184 1 0.575 0.434144 0.5
185 1 0.6 0.385931 0.5
186 1 0.625 0.434144 0.5
187 1 0.65 0.385931 0.5
188 1 0.675 0.434144 0.5
189 1 0.7 0.385931 0.5
190 1 0.725 0.434144 0.5
191 1 0.75 0.385931 0.5
192 1 0.775 0.434144 0.5
193 1 0.8 0.385931 0.5
194 1 0.825 0.434144 0.5
195 1 0.85 0.385931 0.5
196 1 0.875 0.434144 0.5
197 1 0.9 0.385931 0.5
198 1 0.925 0.434144 0.5
199 1 0.95 0.385931 0.5
200 1 0.975 0.434144 0.5
221 1 0.5 0.48236 0.5
222 1 0.525 0.530575 0.5
223 1 0.55 0.48236 0.5
224 1 0.575 0.530575 0.5
225 1 0.6 0.48236 0.5
226 1 0.625 0.530575 0.5
227 1 0.65 0.48236 0.5
228 1 0.675 0.530575 0.5
229 1 0.7 0.48236 0.5
230 1 0.725 0.530575 0.5
231 1 0.75 0.48236 0.5
232 1 0.775 0.530575 0.5
233 1 0.8 0.48236 0.5
234 1 0.825 0.530575 0.5
235 1 0.85 0.48236 0.5
236 1 0.875 0.530575 0.5
237 1 0.9 0.48236 0.5
238 1 0.925 0.530575 0.5
239 1 0.95 0.48236 0.5
240 1 0.975 0.530575 0.5
261 1 0.5 0.578788 0.5
262 1 0.525 0.627 0.5
263 1 0.55 0.578788 0.5
264 1 0.575 0.627 0.5
265 1 0.6 0.578788 0.5
266 1 0.625 0.627 0.5
267 1 0.65 0.578788 0.5
268 1 0.675 0.627 0.5
269 1 0.7 0.578788 0.5
270 1 0.725 0.627 0.5
271 1 0.75 0.578788 0.5
272 1 0.775 0.627 0.5
273 1 0.8 0.578788 0.5
274 1 0.825 0.627 0.5
275 1 0.85 0.578788 0.5
276 1 0.875 0.627 0.5
277 1 0.9 0.578788 0.5
278 1 0.925 0.627 0.5
279 1 0.95 0.578788 0.5
280 1 0.975 0.627 0.5
301 1 0.5 0.675218 0.5
302 1 0.525 0.723432 0.5
303 1 0.55 0.675218 0.5
304 1 0.575 0.723432 0.5
305 1 0.6 0.675218 0.5
306 1 0.625 0.723432 0.5
307 1 0.65 0.675218 0.5
308 1 0.675 0.723432 0.5
309 1 0.7 0.675218 0.5
310 1 0.725 0.723432 0.5
311 1 0.75 0.675218 0.5
312 1 0.775 0.723432 0.5
313 1 0.8 0.675218 0.5
314 1 0.825 0.723432 0.5
315 1 0.85 0.675218 0.5
316 1 0.875 0.723432 0.5
317 1 0.9 0.675218 0.5
318 1 0.925 0.723432 0.5
319 1 0.95 0.675218 0.5
320 1 0.975 0.723432 0.5
341 1 0.5 0.771638 0.5
342 1 0.525 0.819847 0.5
343 1 0.55 0.771638 0.5
344 1 0.575 0.819847 0.5
345 1 0.6 0.771638 0.5
346 1 0.625 0.819847 0.5
347 1 0.65 0.771638 0.5
348 1 0.675 0.819847 0.5
349 1 0.7 0.771638 0.5
350 1 0.725 0.819847 0.5
351 1 0.75 0.771638 0.5
352 1 0.775 0.819847 0.5
353 1 0.8 0.771638 0.5
354 1 0.825 0.819847 0.5
355 1 0.85 0.771638 0.5
356 1 0.875 0.819847 0.5
357 1 0.9 0.771638 0.5
358 1 0.925 0.819847 0.5
359 1 0.95 0.771638 0.5
360 1 0.975 0.819847 0.5
381 3 0.5 0.868033 0.5
382 3 0.525 0.916228 0.5
383 3 0.55 0.868033 0.5
384 3 0.575 0.916228 0.5
385 3 0.6 0.868033 0.5
386 3 0.625 0.916228 0.5
387 3 0.65 0.868033 0.5
388 3 0.675 0.916228 0.5
389 3 0.7 0.868033 0.5
390 3 0.725 0.916228 0.5
391 3 0.75 0.868033 0.5
392 3 0.775 0.916228 0.5
393 1 0.8 0.868033 0.5
394 1 0.825 0.916228 0.5
395 1 0.85 0.868033 0.5
396 1 0.875 0.916228 0.5
397 1 0.9 0.868033 0.5
398 1 0.925 0.916228 0.5
399 1 0.95 0.868033 0.5
400 1 0.975 0.916228 0.5
411 3 0.5 0.964621 0.5
412 3 0.593269 0.999901 0.5
413 3 0.6 0.964621 0.5
414 3 0.65 0.964621 0.5
415 3 0.7 0.964621 0.5
416 3 0.75 0.964621 0.5
417 1 0.8 0.964621 0.5
418 1 0.85 0.964621 0.5
419 1 0.9 0.964621 0.5
420 1 0.95 0.964621 0.5
ITEM: TIMESTEP
150
ITEM: NUMBER OF ATOMS
420
ITEM: BOX BOUNDS pp ss pp
0.0000000000000000e+00 2.2653923264628304e+01
2.1918578738840608e-01 2.0403415835669144e+01
-2.8317404080785380e-01 2.8317404080785380e-01
ITEM: ATOMS id type xs ys zs
1 2 0 9.72185e-05 0.5
2 2 0.025 0.0477654 0.5
3 2 0.05 9.72185e-05 0.5
4 2 0.075 0.0477654 0.5
5 2 0.1 9.72185e-05 0.5
6 2 0.125 0.0477654 0.5
7 2 0.15 9.72185e-05 0.5
8 2 0.175 0.0477654 0.5
9 2 0.2 9.72185e-05 0.5
10 2 0.225 0.0477654 0.5
11 2 0.25 9.72185e-05 0.5
12 2 0.275 0.0477654 0.5
13 2 0.3 9.72185e-05 0.5
14 2 0.325 0.0477654 0.5
15 2 0.35 9.72185e-05 0.5
16 2 0.375 0.0477654 0.5
17 2 0.4 9.72185e-05 0.5
18 2 0.425 0.0477654 0.5
19 2 0.45 9.72185e-05 0.5
20 2 0.475 0.0477654 0.5
41 2 3.57546e-18 0.0952381 0.5
42 1 0.0250014 0.142717 0.5
43 2 0.05 0.0952381 0.5
44 1 0.0750017 0.142717 0.5
45 2 0.1 0.0952381 0.5
46 1 0.125002 0.142717 0.5
47 2 0.15 0.0952381 0.5
48 1 0.175002 0.142718 0.5
49 2 0.2 0.0952381 0.5
50 1 0.225002 0.142718 0.5
51 2 0.25 0.0952381 0.5
52 1 0.275002 0.142718 0.5
53 2 0.3 0.0952381 0.5
54 1 0.325001 0.142719 0.5
55 2 0.35 0.0952381 0.5
56 1 0.375001 0.142719 0.5
57 2 0.4 0.0952381 0.5
58 1 0.425001 0.14272 0.5
59 2 0.45 0.0952381 0.5
60 1 0.475 0.14272 0.5
81 1 2.55099e-06 0.190195 0.5
82 1 0.0250043 0.237674 0.5
83 1 0.0500031 0.190195 0.5
84 1 0.0750047 0.237674 0.5
85 1 0.100003 0.190196 0.5
86 1 0.125005 0.237675 0.5
87 1 0.150004 0.190197 0.5
88 1 0.175005 0.237676 0.5
89 1 0.200004 0.190197 0.5
90 1 0.225005 0.237678 0.5
91 1 0.250003 0.190198 0.5
92 1 0.275004 0.23768 0.5
93 1 0.300003 0.190199 0.5
94 1 0.325004 0.237681 0.5
95 1 0.350002 0.1902 0.5
96 1 0.375003 0.237682 0.5
97 1 0.400002 0.190201 0.5
98 1 0.425002 0.237683 0.5
99 1 0.450001 0.190201 0.5
100 1 0.475001 0.237684 0.5
411 3 0.49914 0.950281 0.5
122 1 0.0250071 0.332629 0.5
123 1 0.0500059 0.285152 0.5
124 1 0.0750072 0.33263 0.5
125 1 0.100006 0.285153 0.5
126 1 0.125007 0.332632 0.5
127 1 0.150006 0.285155 0.5
128 1 0.175007 0.332634 0.5
129 1 0.200006 0.285157 0.5
130 1 0.225007 0.332637 0.5
131 1 0.250006 0.285159 0.5
132 1 0.275006 0.332641 0.5
133 1 0.300005 0.285161 0.5
134 1 0.325006 0.332644 0.5
135 1 0.350004 0.285163 0.5
136 1 0.375005 0.332647 0.5
137 1 0.400003 0.285165 0.5
138 1 0.425003 0.332648 0.5
139 1 0.450002 0.285166 0.5
140 1 0.475002 0.332649 0.5
161 1 8.51651e-06 0.380106 0.5
162 1 0.0250099 0.427584 0.5
163 1 0.0500084 0.380107 0.5
164 1 0.0750088 0.427585 0.5
165 1 0.100008 0.380109 0.5
166 1 0.125008 0.427588 0.5
167 1 0.150007 0.380111 0.5
168 1 0.175007 0.427591 0.5
169 1 0.200007 0.380115 0.5
170 1 0.225007 0.427595 0.5
171 1 0.250007 0.380119 0.5
172 1 0.275007 0.4276 0.5
173 1 0.300007 0.380123 0.5
174 1 0.325007 0.427606 0.5
175 1 0.350006 0.380127 0.5
176 1 0.375007 0.427611 0.5
177 1 0.400005 0.38013 0.5
178 1 0.425006 0.427615 0.5
179 1 0.450004 0.380132 0.5
180 1 0.475004 0.427618 0.5
201 1 1.21823e-05 0.47506 0.5
202 1 0.0250126 0.522538 0.5
203 1 0.0500102 0.475062 0.5
204 1 0.0750087 0.52254 0.5
205 1 0.100008 0.475064 0.5
206 1 0.125005 0.522542 0.5
207 1 0.150006 0.475067 0.5
208 1 0.175003 0.522545 0.5
209 1 0.200005 0.475071 0.5
210 1 0.225003 0.52255 0.5
211 1 0.250006 0.475076 0.5
212 1 0.275004 0.522556 0.5
213 1 0.300007 0.475083 0.5
214 1 0.325007 0.522565 0.5
215 1 0.350008 0.47509 0.5
216 1 0.375009 0.522575 0.5
217 1 0.400008 0.475097 0.5
218 1 0.42501 0.522584 0.5
219 1 0.450007 0.475102 0.5
220 1 0.475007 0.522591 0.5
381 3 0.499956 0.855153 0.5
242 1 0.0250148 0.617494 0.5
243 1 0.0500108 0.570017 0.5
244 1 0.0750062 0.617496 0.5
245 1 0.100005 0.570019 0.5
246 1 0.124998 0.617497 0.5
247 1 0.15 0.570021 0.5
248 1 0.174992 0.617498 0.5
249 1 0.199998 0.570023 0.5
250 1 0.22499 0.617499 0.5
251 1 0.249998 0.570028 0.5
252 1 0.274992 0.617505 0.5
253 1 0.300002 0.570037 0.5
254 1 0.324998 0.617517 0.5
255 1 0.350007 0.570049 0.5
256 1 0.375006 0.617535 0.5
257 1 0.400011 0.570063 0.5
258 1 0.425012 0.617555 0.5
259 1 0.450011 0.570075 0.5
260 1 0.475011 0.617571 0.5
301 1 0.500009 0.665074 0.5
282 1 0.0250161 0.712455 0.5
283 1 0.0500098 0.664975 0.5
284 1 0.075001 0.712458 0.5
285 1 0.0999981 0.664977 0.5
286 1 0.124986 0.712457 0.5
287 1 0.149988 0.664975 0.5
288 1 0.174973 0.712452 0.5
289 1 0.19998 0.664974 0.5
290 1 0.224964 0.712447 0.5
291 1 0.249978 0.664974 0.5
292 1 0.274961 0.712445 0.5
293 1 0.299982 0.66498 0.5
294 1 0.324966 0.712453 0.5
295 1 0.349992 0.664997 0.5
296 1 0.374981 0.712477 0.5
297 1 0.400005 0.665024 0.5
298 1 0.425002 0.712521 0.5
299 1 0.450012 0.665053 0.5
300 1 0.47501 0.712562 0.5
321 1 2.50235e-05 0.759936 0.5
322 1 0.0250155 0.807424 0.5
323 1 0.050007 0.759941 0.5
324 1 0.0749944 0.807427 0.5
325 1 0.0999885 0.759941 0.5
326 1 0.124973 0.807424 0.5
327 1 0.149971 0.759936 0.5
328 1 0.174951 0.807415 0.5
329 1 0.199954 0.759928 0.5
330 1 0.224929 0.807402 0.5
331 1 0.249942 0.759919 0.5
332 1 0.274911 0.807389 0.5
333 1 0.299936 0.759914 0.5
334 1 0.324898 0.807381 0.5
335 1 0.349941 0.759923 0.5
336 1 0.3749 0.807391 0.5
337 1 0.399962 0.759958 0.5
338 1 0.424926 0.807441 0.5
339 1 0.449995 0.76003 0.5
340 1 0.474983 0.807565 0.5
361 1 2.5743e-05 0.854908 0.5
362 1 0.0250121 0.902403 0.5
363 1 0.0500028 0.854914 0.5
364 1 0.0749885 0.902406 0.5
365 1 0.0999793 0.854914 0.5
366 1 0.124963 0.902403 0.5
367 1 0.149954 0.854907 0.5
368 1 0.174935 0.902393 0.5
369 1 0.199927 0.854894 0.5
370 1 0.224901 0.902378 0.5
371 1 0.249898 0.854877 0.5
372 1 0.274859 0.902358 0.5
373 1 0.299868 0.854859 0.5
374 1 0.324808 0.902338 0.5
375 1 0.34984 0.854847 0.5
376 1 0.374748 0.902325 0.5
377 1 0.399826 0.854857 0.5
378 1 0.424686 0.902337 0.5
379 3 0.44985 0.854924 0.5
380 3 0.474655 0.902422 0.5
401 1 2.02523e-05 0.95009 0.5
402 1 0.0499978 0.950096 0.5
403 1 0.0999749 0.950097 0.5
404 1 0.149949 0.950091 0.5
405 1 0.199916 0.950081 0.5
406 1 0.249873 0.950065 0.5
407 1 0.299813 0.950048 0.5
408 1 0.349727 0.950035 0.5
409 1 0.399599 0.950035 0.5
410 3 0.449399 0.950075 0.5
101 1 0.5 0.190202 0.5
221 1 0.500004 0.475104 0.5
261 1 0.500007 0.570082 0.5
341 1 0.500004 0.760088 0.5
21 2 0.5 9.72185e-05 0.5
22 2 0.525 0.0477654 0.5
23 2 0.55 9.72185e-05 0.5
24 2 0.575 0.0477654 0.5
25 2 0.6 9.72185e-05 0.5
26 2 0.625 0.0477654 0.5
27 2 0.65 9.72185e-05 0.5
28 2 0.675 0.0477654 0.5
29 2 0.7 9.72185e-05 0.5
30 2 0.725 0.0477654 0.5
31 2 0.75 9.72185e-05 0.5
32 2 0.775 0.0477654 0.5
33 2 0.8 9.72185e-05 0.5
34 2 0.825 0.0477654 0.5
35 2 0.85 9.72185e-05 0.5
36 2 0.875 0.0477654 0.5
37 2 0.9 9.72185e-05 0.5
38 2 0.925 0.0477654 0.5
39 2 0.95 9.72185e-05 0.5
40 2 0.975 0.0477654 0.5
61 2 0.5 0.0952381 0.5
62 1 0.525 0.14272 0.5
63 2 0.55 0.0952381 0.5
64 1 0.574999 0.14272 0.5
65 2 0.6 0.0952381 0.5
66 1 0.624999 0.142719 0.5
67 2 0.65 0.0952381 0.5
68 1 0.674999 0.142719 0.5
69 2 0.7 0.0952381 0.5
70 1 0.724999 0.142719 0.5
71 2 0.75 0.0952381 0.5
72 1 0.774999 0.142718 0.5
73 2 0.8 0.0952381 0.5
74 1 0.825 0.142718 0.5
75 2 0.85 0.0952381 0.5
76 1 0.875 0.142717 0.5
77 2 0.9 0.0952381 0.5
78 1 0.925001 0.142717 0.5
79 2 0.95 0.0952381 0.5
80 1 0.975001 0.142717 0.5
417 1 0.800162 0.950035 0.5
102 1 0.525 0.237684 0.5
103 1 0.549999 0.190202 0.5
104 1 0.574999 0.237683 0.5
105 1 0.599999 0.190201 0.5
106 1 0.624998 0.237682 0.5
107 1 0.649999 0.190201 0.5
108 1 0.674998 0.237681 0.5
109 1 0.699999 0.1902 0.5
110 1 0.724999 0.23768 0.5
111 1 0.749999 0.190199 0.5
112 1 0.774999 0.237678 0.5
113 1 0.8 0.190198 0.5
114 1 0.825 0.237677 0.5
115 1 0.85 0.190197 0.5
116 1 0.875001 0.237675 0.5
117 1 0.900001 0.190196 0.5
118 1 0.925003 0.237674 0.5
119 1 0.950002 0.190196 0.5
120 1 0.975004 0.237674 0.5
141 1 0.5 0.285166 0.5
142 1 0.525 0.332649 0.5
143 1 0.549999 0.285166 0.5
144 1 0.574999 0.332648 0.5
145 1 0.599998 0.285165 0.5
146 1 0.624998 0.332647 0.5
147 1 0.649998 0.285164 0.5
148 1 0.674998 0.332644 0.5
149 1 0.699998 0.285162 0.5
150 1 0.724999 0.332641 0.5
151 1 0.749999 0.285159 0.5
152 1 0.775 0.332637 0.5
153 1 0.8 0.285157 0.5
154 1 0.825002 0.332634 0.5
155 1 0.850002 0.285155 0.5
156 1 0.875004 0.332632 0.5
157 1 0.900003 0.285153 0.5
158 1 0.925005 0.33263 0.5
159 1 0.950004 0.285152 0.5
160 1 0.975007 0.332629 0.5
181 1 0.500002 0.380133 0.5
182 1 0.525001 0.427618 0.5
183 1 0.55 0.380133 0.5
184 1 0.574999 0.427616 0.5
185 1 0.599998 0.380131 0.5
186 1 0.624997 0.427613 0.5
187 1 0.649997 0.380127 0.5
188 1 0.674997 0.427607 0.5
189 1 0.699998 0.380123 0.5
190 1 0.724999 0.427601 0.5
191 1 0.75 0.380119 0.5
192 1 0.775002 0.427595 0.5
193 1 0.800002 0.380114 0.5
194 1 0.825005 0.42759 0.5
195 1 0.850004 0.38011 0.5
196 1 0.875008 0.427586 0.5
197 1 0.900007 0.380108 0.5
198 1 0.92501 0.427584 0.5
199 1 0.950008 0.380106 0.5
200 1 0.97501 0.427583 0.5
416 3 0.750227 0.950031 0.5
222 1 0.525003 0.522593 0.5
223 1 0.55 0.475103 0.5
224 1 0.574999 0.52259 0.5
225 1 0.599998 0.4751 0.5
226 1 0.624996 0.522583 0.5
227 1 0.649997 0.475093 0.5
228 1 0.674997 0.522572 0.5
229 1 0.699998 0.475085 0.5
230 1 0.725 0.52256 0.5
231 1 0.750001 0.475077 0.5
232 1 0.775006 0.522549 0.5
233 1 0.800005 0.475069 0.5
234 1 0.825012 0.522541 0.5
235 1 0.85001 0.475063 0.5
236 1 0.875016 0.522536 0.5
237 1 0.900012 0.47506 0.5
238 1 0.925017 0.522535 0.5
239 1 0.950013 0.475059 0.5
240 1 0.975016 0.522536 0.5
415 3 0.700315 0.950049 0.5
262 1 0.525005 0.617578 0.5
263 1 0.550001 0.570083 0.5
264 1 0.574998 0.617574 0.5
265 1 0.599996 0.570076 0.5
266 1 0.624994 0.617559 0.5
267 1 0.649995 0.570063 0.5
268 1 0.674998 0.617537 0.5
269 1 0.699999 0.570046 0.5
270 1 0.725008 0.617513 0.5
271 1 0.750007 0.57003 0.5
272 1 0.775019 0.617495 0.5
273 1 0.800015 0.570018 0.5
274 1 0.825026 0.617486 0.5
275 1 0.85002 0.570012 0.5
276 1 0.875029 0.617484 0.5
277 1 0.900022 0.57001 0.5
278 1 0.925028 0.617486 0.5
279 1 0.950021 0.570012 0.5
280 1 0.975022 0.61749 0.5
420 1 0.950045 0.950079 0.5
302 1 0.525005 0.712585 0.5
303 1 0.550001 0.665078 0.5
304 1 0.574995 0.712578 0.5
305 1 0.599994 0.665063 0.5
306 1 0.624996 0.712542 0.5
307 1 0.649997 0.665034 0.5
308 1 0.675013 0.712491 0.5
309 1 0.70001 0.664999 0.5
310 1 0.725037 0.712449 0.5
311 1 0.750026 0.664972 0.5
312 1 0.77505 0.712432 0.5
313 1 0.800036 0.664959 0.5
314 1 0.825054 0.712428 0.5
315 1 0.850039 0.664957 0.5
316 1 0.875051 0.712433 0.5
317 1 0.900037 0.66496 0.5
318 1 0.925042 0.712441 0.5
319 1 0.950031 0.664966 0.5
320 1 0.97503 0.712449 0.5
414 3 0.65043 0.95018 0.5
342 1 0.524988 0.807635 0.5
343 1 0.549996 0.760105 0.5
344 1 0.574994 0.807615 0.5
345 1 0.599995 0.760066 0.5
346 1 0.625031 0.807509 0.5
347 1 0.65002 0.759992 0.5
348 1 0.675101 0.807391 0.5
349 1 0.700059 0.759923 0.5
350 1 0.725109 0.807375 0.5
351 1 0.750072 0.759903 0.5
352 1 0.775104 0.807369 0.5
353 1 0.800074 0.759898 0.5
354 1 0.825092 0.807375 0.5
355 1 0.850068 0.759904 0.5
356 1 0.875075 0.807389 0.5
357 1 0.900057 0.759915 0.5
358 1 0.925056 0.807403 0.5
359 1 0.950042 0.759927 0.5
360 1 0.975036 0.807416 0.5
419 1 0.900075 0.950064 0.5
382 3 0.524912 0.90291 0.5
383 3 0.549974 0.855184 0.5
384 3 0.57506 0.902743 0.5
385 3 0.60005 0.855063 0.5
386 3 0.625409 0.902252 0.5
387 3 0.650191 0.854841 0.5
388 3 0.675275 0.902365 0.5
389 3 0.70017 0.854854 0.5
390 3 0.725218 0.902333 0.5
391 3 0.75015 0.854843 0.5
392 3 0.775169 0.902333 0.5
393 1 0.800125 0.854849 0.5
394 1 0.825127 0.902346 0.5
395 1 0.850099 0.854864 0.5
396 1 0.875092 0.902363 0.5
397 1 0.900073 0.854881 0.5
398 1 0.925062 0.90238 0.5
399 1 0.950049 0.854896 0.5
400 1 0.975036 0.902394 0.5
418 1 0.850113 0.950049 0.5
412 3 0.588965 1.00323 0.5
413 3 0.600865 0.949753 0.5
121 1 1.00001 0.285151 0.5
241 1 1.00002 0.570014 0.5
281 1 1.00002 0.664972 0.5
ITEM: TIMESTEP
182
ITEM: NUMBER OF ATOMS
420
ITEM: BOX BOUNDS pp ss pp
0.0000000000000000e+00 2.2653923264628304e+01
2.1918578738840608e-01 2.0470478560069214e+01
-2.8317404080785380e-01 2.8317404080785380e-01
ITEM: ATOMS id type xs ys zs
1 2 0 9.68965e-05 0.5
2 2 0.025 0.0476072 0.5
3 2 0.05 9.68965e-05 0.5
4 2 0.075 0.0476072 0.5
5 2 0.1 9.68965e-05 0.5
6 2 0.125 0.0476072 0.5
7 2 0.15 9.68965e-05 0.5
8 2 0.175 0.0476072 0.5
9 2 0.2 9.68965e-05 0.5
10 2 0.225 0.0476072 0.5
11 2 0.25 9.68965e-05 0.5
12 2 0.275 0.0476072 0.5
13 2 0.3 9.68965e-05 0.5
14 2 0.325 0.0476072 0.5
15 2 0.35 9.68965e-05 0.5
16 2 0.375 0.0476072 0.5
17 2 0.4 9.68965e-05 0.5
18 2 0.425 0.0476072 0.5
19 2 0.45 9.68965e-05 0.5
20 2 0.475 0.0476072 0.5
41 2 3.57546e-18 0.0949228 0.5
42 1 0.025001 0.142244 0.5
43 2 0.05 0.0949228 0.5
44 1 0.0750016 0.142244 0.5
45 2 0.1 0.0949228 0.5
46 1 0.125002 0.142244 0.5
47 2 0.15 0.0949228 0.5
48 1 0.175003 0.142244 0.5
49 2 0.2 0.0949228 0.5
50 1 0.225003 0.142245 0.5
51 2 0.25 0.0949228 0.5
52 1 0.275003 0.142245 0.5
53 2 0.3 0.0949228 0.5
54 1 0.325003 0.142246 0.5
55 2 0.35 0.0949228 0.5
56 1 0.375002 0.142246 0.5
57 2 0.4 0.0949228 0.5
58 1 0.425002 0.142247 0.5
59 2 0.45 0.0949228 0.5
60 1 0.475001 0.142247 0.5
81 1 1.34647e-06 0.189564 0.5
82 1 0.025003 0.236884 0.5
83 1 0.0500026 0.189564 0.5
84 1 0.0750044 0.236884 0.5
85 1 0.100004 0.189564 0.5
86 1 0.125006 0.236885 0.5
87 1 0.150005 0.189565 0.5
88 1 0.175007 0.236887 0.5
89 1 0.200005 0.189566 0.5
90 1 0.225007 0.236889 0.5
91 1 0.250005 0.189568 0.5
92 1 0.275007 0.236891 0.5
93 1 0.300005 0.189569 0.5
94 1 0.325007 0.236893 0.5
95 1 0.350005 0.18957 0.5
96 1 0.375006 0.236895 0.5
97 1 0.400004 0.189571 0.5
98 1 0.425005 0.236897 0.5
99 1 0.450003 0.189572 0.5
100 1 0.475003 0.236897 0.5
411 3 0.499127 0.947162 0.5
122 1 0.0250049 0.331523 0.5
123 1 0.0500048 0.284204 0.5
124 1 0.0750065 0.331523 0.5
125 1 0.100006 0.284205 0.5
126 1 0.125008 0.331525 0.5
127 1 0.150008 0.284206 0.5
128 1 0.175009 0.331528 0.5
129 1 0.200009 0.284209 0.5
130 1 0.22501 0.331532 0.5
131 1 0.250009 0.284212 0.5
132 1 0.275011 0.331536 0.5
133 1 0.300009 0.284215 0.5
134 1 0.325011 0.331541 0.5
135 1 0.350009 0.284218 0.5
136 1 0.37501 0.331545 0.5
137 1 0.400007 0.284221 0.5
138 1 0.425008 0.331548 0.5
139 1 0.450005 0.284223 0.5
140 1 0.475005 0.33155 0.5
161 1 4.97984e-06 0.378841 0.5
162 1 0.0250066 0.426159 0.5
163 1 0.0500065 0.378841 0.5
164 1 0.0750074 0.42616 0.5
165 1 0.100008 0.378843 0.5
166 1 0.125008 0.426163 0.5
167 1 0.150009 0.378846 0.5
168 1 0.175009 0.426167 0.5
169 1 0.20001 0.37885 0.5
170 1 0.225011 0.426173 0.5
171 1 0.250012 0.378855 0.5
172 1 0.275012 0.42618 0.5
173 1 0.300012 0.378861 0.5
174 1 0.325013 0.426188 0.5
175 1 0.350012 0.378867 0.5
176 1 0.375013 0.426195 0.5
177 1 0.400011 0.378873 0.5
178 1 0.425011 0.426202 0.5
179 1 0.450008 0.378876 0.5
180 1 0.475008 0.426206 0.5
201 1 7.44051e-06 0.473477 0.5
202 1 0.0250082 0.520795 0.5
203 1 0.0500073 0.473478 0.5
204 1 0.0750064 0.520796 0.5
205 1 0.100007 0.473479 0.5
206 1 0.125005 0.520799 0.5
207 1 0.150007 0.473483 0.5
208 1 0.175005 0.520803 0.5
209 1 0.200008 0.473488 0.5
210 1 0.225006 0.52081 0.5
211 1 0.250011 0.473496 0.5
212 1 0.275009 0.520819 0.5
213 1 0.300013 0.473505 0.5
214 1 0.325013 0.520832 0.5
215 1 0.350014 0.473516 0.5
216 1 0.375015 0.520846 0.5
217 1 0.400014 0.473526 0.5
218 1 0.425015 0.520859 0.5
219 1 0.450012 0.473533 0.5
220 1 0.475011 0.520868 0.5
381 3 0.499954 0.852349 0.5
242 1 0.0250097 0.615433 0.5
243 1 0.0500069 0.568114 0.5
244 1 0.0750027 0.615434 0.5
245 1 0.100003 0.568116 0.5
246 1 0.124996 0.615435 0.5
247 1 0.15 0.568118 0.5
248 1 0.174992 0.615437 0.5
249 1 0.199999 0.568123 0.5
250 1 0.224991 0.615442 0.5
251 1 0.250002 0.568131 0.5
252 1 0.274994 0.615452 0.5
253 1 0.300006 0.568144 0.5
254 1 0.325002 0.615468 0.5
255 1 0.350012 0.568161 0.5
256 1 0.37501 0.615492 0.5
257 1 0.400016 0.568179 0.5
258 1 0.425015 0.615517 0.5
259 1 0.450015 0.568195 0.5
260 1 0.475013 0.615538 0.5
101 1 0.500001 0.189572 0.5
282 1 0.0250109 0.710077 0.5
283 1 0.0500051 0.662755 0.5
284 1 0.0749966 0.710078 0.5
285 1 0.0999948 0.662755 0.5
286 1 0.124983 0.710076 0.5
287 1 0.149986 0.662755 0.5
288 1 0.174971 0.710074 0.5
289 1 0.19998 0.662756 0.5
290 1 0.224962 0.710072 0.5
291 1 0.249979 0.66276 0.5
292 1 0.27496 0.710076 0.5
293 1 0.299983 0.662771 0.5
294 1 0.324966 0.71009 0.5
295 1 0.349994 0.662794 0.5
296 1 0.374982 0.710121 0.5
297 1 0.400008 0.662828 0.5
298 1 0.425003 0.710171 0.5
299 1 0.450014 0.662863 0.5
300 1 0.47501 0.710219 0.5
321 1 2.02031e-05 0.7574 0.5
322 1 0.0250114 0.804729 0.5
323 1 0.0500022 0.757403 0.5
324 1 0.0749894 0.80473 0.5
325 1 0.0999838 0.757402 0.5
326 1 0.124967 0.804727 0.5
327 1 0.149966 0.757398 0.5
328 1 0.174945 0.80472 0.5
329 1 0.19995 0.757392 0.5
330 1 0.224923 0.804711 0.5
331 1 0.249938 0.757388 0.5
332 1 0.274904 0.804703 0.5
333 1 0.299933 0.75739 0.5
334 1 0.324892 0.804702 0.5
335 1 0.349939 0.757406 0.5
336 1 0.374895 0.80472 0.5
337 1 0.399961 0.757449 0.5
338 1 0.424923 0.804779 0.5
339 1 0.449995 0.757528 0.5
340 1 0.474981 0.804912 0.5
361 1 2.34504e-05 0.852056 0.5
362 1 0.0250102 0.899392 0.5
363 1 0.0499987 0.85206 0.5
364 1 0.0749837 0.899394 0.5
365 1 0.0999735 0.852059 0.5
366 1 0.124956 0.899391 0.5
367 1 0.149947 0.852053 0.5
368 1 0.174925 0.899383 0.5
369 1 0.199919 0.852043 0.5
370 1 0.224889 0.899371 0.5
371 1 0.249888 0.852031 0.5
372 1 0.274845 0.899357 0.5
373 1 0.299857 0.852019 0.5
374 1 0.324794 0.899344 0.5
375 1 0.34983 0.852015 0.5
376 1 0.374734 0.89934 0.5
377 1 0.399818 0.852034 0.5
378 1 0.424674 0.899361 0.5
379 3 0.449845 0.852111 0.5
380 3 0.474647 0.899456 0.5
401 1 2.21028e-05 0.946924 0.5
402 1 0.0499955 0.946928 0.5
403 1 0.0999686 0.946927 0.5
404 1 0.149939 0.946923 0.5
405 1 0.199902 0.946914 0.5
406 1 0.249856 0.946904 0.5
407 1 0.299794 0.946893 0.5
408 1 0.349707 0.946887 0.5
409 1 0.39958 0.946895 0.5
410 3 0.449382 0.946945 0.5
121 1 3.03745e-06 0.284204 0.5
281 1 1.53433e-05 0.662753 0.5
241 1 1.08451e-05 0.568114 0.5
21 2 0.5 9.68965e-05 0.5
22 2 0.525 0.0476072 0.5
23 2 0.55 9.68965e-05 0.5
24 2 0.575 0.0476072 0.5
25 2 0.6 9.68965e-05 0.5
26 2 0.625 0.0476072 0.5
27 2 0.65 9.68965e-05 0.5
28 2 0.675 0.0476072 0.5
29 2 0.7 9.68965e-05 0.5
30 2 0.725 0.0476072 0.5
31 2 0.75 9.68965e-05 0.5
32 2 0.775 0.0476072 0.5
33 2 0.8 9.68965e-05 0.5
34 2 0.825 0.0476072 0.5
35 2 0.85 9.68965e-05 0.5
36 2 0.875 0.0476072 0.5
37 2 0.9 9.68965e-05 0.5
38 2 0.925 0.0476072 0.5
39 2 0.95 9.68965e-05 0.5
40 2 0.975 0.0476072 0.5
61 2 0.5 0.0949228 0.5
62 1 0.525 0.142247 0.5
63 2 0.55 0.0949228 0.5
64 1 0.575 0.142247 0.5
65 2 0.6 0.0949228 0.5
66 1 0.624999 0.142247 0.5
67 2 0.65 0.0949228 0.5
68 1 0.674999 0.142247 0.5
69 2 0.7 0.0949228 0.5
70 1 0.724998 0.142246 0.5
71 2 0.75 0.0949228 0.5
72 1 0.774998 0.142246 0.5
73 2 0.8 0.0949228 0.5
74 1 0.824999 0.142245 0.5
75 2 0.85 0.0949228 0.5
76 1 0.874999 0.142245 0.5
77 2 0.9 0.0949228 0.5
78 1 0.925 0.142244 0.5
79 2 0.95 0.0949228 0.5
80 1 0.975 0.142244 0.5
417 1 0.800178 0.946893 0.5
102 1 0.525001 0.236898 0.5
103 1 0.55 0.189572 0.5
104 1 0.574999 0.236897 0.5
105 1 0.599999 0.189572 0.5
106 1 0.624998 0.236897 0.5
107 1 0.649998 0.189572 0.5
108 1 0.674997 0.236895 0.5
109 1 0.699997 0.189571 0.5
110 1 0.724996 0.236893 0.5
111 1 0.749997 0.189569 0.5
112 1 0.774996 0.236891 0.5
113 1 0.799997 0.189568 0.5
114 1 0.824997 0.236889 0.5
115 1 0.849998 0.189567 0.5
116 1 0.874998 0.236887 0.5
117 1 0.899999 0.189566 0.5
118 1 0.925 0.236886 0.5
119 1 0.95 0.189565 0.5
120 1 0.975001 0.236885 0.5
141 1 0.500003 0.284224 0.5
142 1 0.525002 0.331551 0.5
143 1 0.550001 0.284224 0.5
144 1 0.574999 0.33155 0.5
145 1 0.599998 0.284223 0.5
146 1 0.624997 0.331548 0.5
147 1 0.649997 0.284222 0.5
148 1 0.674995 0.331545 0.5
149 1 0.699996 0.284219 0.5
150 1 0.724995 0.331541 0.5
151 1 0.749996 0.284216 0.5