ITEM: TIMESTEP
0
ITEM: NUMBER OF ATOMS
420
ITEM: BOX BOUNDS pp ss pp
0.0000000000000000e+00 2.2653923264628304e+01
2.1918578738840608e-01 1.9499894075573799e+01
-2.8317404080785380e-01 2.8317404080785380e-01
ITEM: ATOMS id type xs ys zs
1 2 0 0.000101774 0.5
2 2 0.025 0.0500038 0.5
3 2 0.05 0.000101774 0.5
4 2 0.075 0.0500038 0.5
5 2 0.1 0.000101774 0.5
6 2 0.125 0.0500038 0.5
7 2 0.15 0.000101774 0.5
8 2 0.175 0.0500038 0.5
9 2 0.2 0.000101774 0.5
10 2 0.225 0.0500038 0.5
11 2 0.25 0.000101774 0.5
12 2 0.275 0.0500038 0.5
13 2 0.3 0.000101774 0.5
14 2 0.325 0.0500038 0.5
15 2 0.35 0.000101774 0.5
16 2 0.375 0.0500038 0.5
17 2 0.4 0.000101774 0.5
18 2 0.425 0.0500038 0.5
19 2 0.45 0.000101774 0.5
20 2 0.475 0.0500038 0.5
41 2 3.57546e-18 0.0997011 0.5
42 1 0.025 0.14939 0.5
43 2 0.05 0.0997011 0.5
44 1 0.075 0.14939 0.5
45 2 0.1 0.0997011 0.5
46 1 0.125 0.14939 0.5
47 2 0.15 0.0997011 0.5
48 1 0.175 0.14939 0.5
49 2 0.2 0.0997011 0.5
50 1 0.225 0.14939 0.5
51 2 0.25 0.0997011 0.5
52 1 0.275 0.14939 0.5
53 2 0.3 0.0997011 0.5
54 1 0.325 0.14939 0.5
55 2 0.35 0.0997011 0.5
56 1 0.375 0.14939 0.5
57 2 0.4 0.0997011 0.5
58 1 0.425 0.14939 0.5
59 2 0.45 0.0997011 0.5
60 1 0.475 0.14939 0.5
81 1 2.74429e-20 0.199102 0.5
82 1 0.025 0.248812 0.5
83 1 0.05 0.199102 0.5
84 1 0.075 0.248812 0.5
85 1 0.1 0.199102 0.5
86 1 0.125 0.248812 0.5
87 1 0.15 0.199102 0.5
88 1 0.175 0.248812 0.5
89 1 0.2 0.199102 0.5
90 1 0.225 0.248812 0.5
91 1 0.25 0.199102 0.5
92 1 0.275 0.248812 0.5
93 1 0.3 0.199102 0.5
94 1 0.325 0.248812 0.5
95 1 0.35 0.199102 0.5
96 1 0.375 0.248812 0.5
97 1 0.4 0.199102 0.5
98 1 0.425 0.248812 0.5
99 1 0.45 0.199102 0.5
100 1 0.475 0.248812 0.5
121 1 0 0.298529 0.5
122 1 0.025 0.348251 0.5
123 1 0.05 0.298529 0.5
124 1 0.075 0.348251 0.5
125 1 0.1 0.298529 0.5
126 1 0.125 0.348251 0.5
127 1 0.15 0.298529 0.5
128 1 0.175 0.348251 0.5
129 1 0.2 0.298529 0.5
130 1 0.225 0.348251 0.5
131 1 0.25 0.298529 0.5
132 1 0.275 0.348251 0.5
133 1 0.3 0.298529 0.5
134 1 0.325 0.348251 0.5
135 1 0.35 0.298529 0.5
136 1 0.375 0.348251 0.5
137 1 0.4 0.298529 0.5
138 1 0.425 0.348251 0.5
139 1 0.45 0.298529 0.5
140 1 0.475 0.348251 0.5
161 1 0 0.397966 0.5
162 1 0.025 0.447682 0.5
163 1 0.05 0.397966 0.5
164 1 0.075 0.447682 0.5
165 1 0.1 0.397966 0.5
166 1 0.125 0.447682 0.5
167 1 0.15 0.397966 0.5
168 1 0.175 0.447682 0.5
169 1 0.2 0.397966 0.5
170 1 0.225 0.447682 0.5
171 1 0.25 0.397966 0.5
172 1 0.275 0.447682 0.5
173 1 0.3 0.397966 0.5
174 1 0.325 0.447682 0.5
175 1 0.35 0.397966 0.5
176 1 0.375 0.447682 0.5
177 1 0.4 0.397966 0.5
178 1 0.425 0.447682 0.5
179 1 0.45 0.397966 0.5
180 1 0.475 0.447682 0.5
201 1 0 0.497401 0.5
202 1 0.025 0.54712 0.5
203 1 0.05 0.497401 0.5
204 1 0.075 0.54712 0.5
205 1 0.1 0.497401 0.5
206 1 0.125 0.54712 0.5
207 1 0.15 0.497401 0.5
208 1 0.175 0.54712 0.5
209 1 0.2 0.497401 0.5
210 1 0.225 0.54712 0.5
211 1 0.25 0.497401 0.5
212 1 0.275 0.54712 0.5
213 1 0.3 0.497401 0.5
214 1 0.325 0.54712 0.5
215 1 0.35 0.497401 0.5
216 1 0.375 0.54712 0.5
217 1 0.4 0.497401 0.5
218 1 0.425 0.54712 0.5
219 1 0.45 0.497401 0.5
220 1 0.475 0.54712 0.5
241 1 0 0.596837 0.5
242 1 0.025 0.646552 0.5
243 1 0.05 0.596837 0.5
244 1 0.075 0.646552 0.5
245 1 0.1 0.596837 0.5
246 1 0.125 0.646552 0.5
247 1 0.15 0.596837 0.5
248 1 0.175 0.646552 0.5
249 1 0.2 0.596837 0.5
250 1 0.225 0.646552 0.5
251 1 0.25 0.596837 0.5
252 1 0.275 0.646552 0.5
253 1 0.3 0.596837 0.5
254 1 0.325 0.646552 0.5
255 1 0.35 0.596837 0.5
256 1 0.375 0.646552 0.5
257 1 0.4 0.596837 0.5
258 1 0.425 0.646552 0.5
259 1 0.45 0.596837 0.5
260 1 0.475 0.646552 0.5
281 1 2.18851e-18 0.696274 0.5
282 1 0.025 0.745991 0.5
283 1 0.05 0.696274 0.5
284 1 0.075 0.745991 0.5
285 1 0.1 0.696274 0.5
286 1 0.125 0.745991 0.5
287 1 0.15 0.696274 0.5
288 1 0.175 0.745991 0.5
289 1 0.2 0.696274 0.5
290 1 0.225 0.745991 0.5
291 1 0.25 0.696274 0.5
292 1 0.275 0.745991 0.5
293 1 0.3 0.696274 0.5
294 1 0.325 0.745991 0.5
295 1 0.35 0.696274 0.5
296 1 0.375 0.745991 0.5
297 1 0.4 0.696274 0.5
298 1 0.425 0.745991 0.5
299 1 0.45 0.696274 0.5
300 1 0.475 0.745991 0.5
321 1 0 0.795701 0.5
322 1 0.025 0.845413 0.5
323 1 0.05 0.795701 0.5
324 1 0.075 0.845413 0.5
325 1 0.1 0.795701 0.5
326 1 0.125 0.845413 0.5
327 1 0.15 0.795701 0.5
328 1 0.175 0.845413 0.5
329 1 0.2 0.795701 0.5
330 1 0.225 0.845413 0.5
331 1 0.25 0.795701 0.5
332 1 0.275 0.845413 0.5
333 1 0.3 0.795701 0.5
334 1 0.325 0.845413 0.5
335 1 0.35 0.795701 0.5
336 1 0.375 0.845413 0.5
337 1 0.4 0.795701 0.5
338 1 0.425 0.845413 0.5
339 1 0.45 0.795701 0.5
340 1 0.475 0.845413 0.5
361 1 5.74281e-19 0.895102 0.5
362 1 0.025 0.944799 0.5
363 1 0.05 0.895102 0.5
364 1 0.075 0.944799 0.5
365 1 0.1 0.895102 0.5
366 1 0.125 0.944799 0.5
367 1 0.15 0.895102 0.5
368 1 0.175 0.944799 0.5
369 1 0.2 0.895102 0.5
370 1 0.225 0.944799 0.5
371 1 0.25 0.895102 0.5
372 1 0.275 0.944799 0.5
373 1 0.3 0.895102 0.5
374 1 0.325 0.944799 0.5
375 1 0.35 0.895102 0.5
376 1 0.375 0.944799 0.5
377 1 0.4 0.895102 0.5
378 1 0.425 0.944799 0.5
379 3 0.45 0.895102 0.5
380 3 0.475 0.944799 0.5
401 1 3.60804e-19 0.994701 0.5
402 1 0.05 0.994701 0.5
403 1 0.1 0.994701 0.5
404 1 0.15 0.994701 0.5
405 1 0.2 0.994701 0.5
406 1 0.25 0.994701 0.5
407 1 0.3 0.994701 0.5
408 1 0.35 0.994701 0.5
409 1 0.4 0.994701 0.5
410 3 0.45 0.994701 0.5
21 2 0.5 0.000101774 0.5
22 2 0.525 0.0500038 0.5
23 2 0.55 0.000101774 0.5
24 2 0.575 0.0500038 0.5
25 2 0.6 0.000101774 0.5
26 2 0.625 0.0500038 0.5
27 2 0.65 0.000101774 0.5
28 2 0.675 0.0500038 0.5
29 2 0.7 0.000101774 0.5
30 2 0.725 0.0500038 0.5
31 2 0.75 0.000101774 0.5
32 2 0.775 0.0500038 0.5
33 2 0.8 0.000101774 0.5
34 2 0.825 0.0500038 0.5
35 2 0.85 0.000101774 0.5
36 2 0.875 0.0500038 0.5
37 2 0.9 0.000101774 0.5
38 2 0.925 0.0500038 0.5
39 2 0.95 0.000101774 0.5
40 2 0.975 0.0500038 0.5
61 2 0.5 0.0997011 0.5
62 1 0.525 0.14939 0.5
63 2 0.55 0.0997011 0.5
64 1 0.575 0.14939 0.5
65 2 0.6 0.0997011 0.5
66 1 0.625 0.14939 0.5
67 2 0.65 0.0997011 0.5
68 1 0.675 0.14939 0.5
69 2 0.7 0.0997011 0.5
70 1 0.725 0.14939 0.5
71 2 0.75 0.0997011 0.5
72 1 0.775 0.14939 0.5
73 2 0.8 0.0997011 0.5
74 1 0.825 0.14939 0.5
75 2 0.85 0.0997011 0.5
76 1 0.875 0.14939 0.5
77 2 0.9 0.0997011 0.5
78 1 0.925 0.14939 0.5
79 2 0.95 0.0997011 0.5
80 1 0.975 0.14939 0.5
101 1 0.5 0.199102 0.5
102 1 0.525 0.248812 0.5
103 1 0.55 0.199102 0.5
104 1 0.575 0.248812 0.5
105 1 0.6 0.199102 0.5
106 1 0.625 0.248812 0.5
107 1 0.65 0.199102 0.5
108 1 0.675 0.248812 0.5
109 1 0.7 0.199102 0.5
110 1 0.725 0.248812 0.5
111 1 0.75 0.199102 0.5
112 1 0.775 0.248812 0.5
113 1 0.8 0.199102 0.5
114 1 0.825 0.248812 0.5
115 1 0.85 0.199102 0.5
116 1 0.875 0.248812 0.5
117 1 0.9 0.199102 0.5
118 1 0.925 0.248812 0.5
119 1 0.95 0.199102 0.5
120 1 0.975 0.248812 0.5
141 1 0.5 0.298529 0.5
142 1 0.525 0.348251 0.5
143 1 0.55 0.298529 0.5
144 1 0.575 0.348251 0.5
145 1 0.6 0.298529 0.5
146 1 0.625 0.348251 0.5
147 1 0.65 0.298529 0.5
148 1 0.675 0.348251 0.5
149 1 0.7 0.298529 0.5
150 1 0.725 0.348251 0.5
151 1 0.75 0.298529 0.5
152 1 0.775 0.348251 0.5
153 1 0.8 0.298529 0.5
154 1 0.825 0.348251 0.5
155 1 0.85 0.298529 0.5
156 1 0.875 0.348251 0.5
157 1 0.9 0.298529 0.5
158 1 0.925 0.348251 0.5
159 1 0.95 0.298529 0.5
160 1 0.975 0.348251 0.5
181 1 0.5 0.397966 0.5
182 1 0.525 0.447682 0.5
183 1 0.55 0.397966 0.5
184 1 0.575 0.447682 0.5
185 1 0.6 0.397966 0.5
186 1 0.625 0.447682 0.5
187 1 0.65 0.397966 0.5
188 1 0.675 0.447682 0.5
189 1 0.7 0.397966 0.5
190 1 0.725 0.447682 0.5
191 1 0.75 0.397966 0.5
192 1 0.775 0.447682 0.5
193 1 0.8 0.397966 0.5
194 1 0.825 0.447682 0.5
195 1 0.85 0.397966 0.5
196 1 0.875 0.447682 0.5
197 1 0.9 0.397966 0.5
198 1 0.925 0.447682 0.5
199 1 0.95 0.397966 0.5
200 1 0.975 0.447682 0.5
221 1 0.5 0.497401 0.5
222 1 0.525 0.54712 0.5
223 1 0.55 0.497401 0.5
224 1 0.575 0.54712 0.5
225 1 0.6 0.497401 0.5
226 1 0.625 0.54712 0.5
227 1 0.65 0.497401 0.5
228 1 0.675 0.54712 0.5
229 1 0.7 0.497401 0.5
230 1 0.725 0.54712 0.5
231 1 0.75 0.497401 0.5
232 1 0.775 0.54712 0.5
233 1 0.8 0.497401 0.5
234 1 0.825 0.54712 0.5
235 1 0.85 0.497401 0.5
236 1 0.875 0.54712 0.5
237 1 0.9 0.497401 0.5
238 1 0.925 0.54712 0.5
239 1 0.95 0.497401 0.5
240 1 0.975 0.54712 0.5
261 1 0.5 0.596837 0.5
262 1 0.525 0.646552 0.5
263 1 0.55 0.596837 0.5
264 1 0.575 0.646552 0.5
265 1 0.6 0.596837 0.5
266 1 0.625 0.646552 0.5
267 1 0.65 0.596837 0.5
268 1 0.675 0.646552 0.5
269 1 0.7 0.596837 0.5
270 1 0.725 0.646552 0.5
271 1 0.75 0.596837 0.5
272 1 0.775 0.646552 0.5
273 1 0.8 0.596837 0.5
274 1 0.825 0.646552 0.5
275 1 0.85 0.596837 0.5
276 1 0.875 0.646552 0.5
277 1 0.9 0.596837 0.5
278 1 0.925 0.646552 0.5
279 1 0.95 0.596837 0.5
280 1 0.975 0.646552 0.5
301 1 0.5 0.696274 0.5
302 1 0.525 0.745991 0.5
303 1 0.55 0.696274 0.5
304 1 0.575 0.745991 0.5
305 1 0.6 0.696274 0.5
306 1 0.625 0.745991 0.5
307 1 0.65 0.696274 0.5
308 1 0.675 0.745991 0.5
309 1 0.7 0.696274 0.5
310 1 0.725 0.745991 0.5
311 1 0.75 0.696274 0.5
312 1 0.775 0.745991 0.5
313 1 0.8 0.696274 0.5
314 1 0.825 0.745991 0.5
315 1 0.85 0.696274 0.5
316 1 0.875 0.745991 0.5
317 1 0.9 0.696274 0.5
318 1 0.925 0.745991 0.5
319 1 0.95 0.696274 0.5
320 1 0.975 0.745991 0.5
341 1 0.5 0.795701 0.5
342 1 0.525 0.845413 0.5
343 1 0.55 0.795701 0.5
344 1 0.575 0.845413 0.5
345 1 0.6 0.795701 0.5
346 1 0.625 0.845413 0.5
347 1 0.65 0.795701 0.5
348 1 0.675 0.845413 0.5
349 1 0.7 0.795701 0.5
350 1 0.725 0.845413 0.5
351 1 0.75 0.795701 0.5
352 1 0.775 0.845413 0.5
353 1 0.8 0.795701 0.5
354 1 0.825 0.845413 0.5
355 1 0.85 0.795701 0.5
356 1 0.875 0.845413 0.5
357 1 0.9 0.795701 0.5
358 1 0.925 0.845413 0.5
359 1 0.95 0.795701 0.5
360 1 0.975 0.845413 0.5
381 3 0.5 0.895102 0.5
382 3 0.525 0.944799 0.5
383 3 0.55 0.895102 0.5
384 3 0.575 0.944799 0.5
385 3 0.6 0.895102 0.5
386 3 0.625 0.944799 0.5
387 3 0.65 0.895102 0.5
388 3 0.675 0.944799 0.5
389 3 0.7 0.895102 0.5
390 3 0.725 0.944799 0.5
391 3 0.75 0.895102 0.5
392 3 0.775 0.944799 0.5
393 1 0.8 0.895102 0.5
394 1 0.825 0.944799 0.5
395 1 0.85 0.895102 0.5
396 1 0.875 0.944799 0.5
397 1 0.9 0.895102 0.5
398 1 0.925 0.944799 0.5
399 1 0.95 0.895102 0.5
400 1 0.975 0.944799 0.5
411 3 0.5 0.994701 0.5
412 3 0.556181 0.999898 0.5
413 3 0.6 0.994701 0.5
414 3 0.65 0.994701 0.5
415 3 0.7 0.994701 0.5
416 3 0.75 0.994701 0.5
417 1 0.8 0.994701 0.5
418 1 0.85 0.994701 0.5
419 1 0.9 0.994701 0.5
420 1 0.95 0.994701 0.5
ITEM: TIMESTEP
150
ITEM: NUMBER OF ATOMS
420
ITEM: BOX BOUNDS pp ss pp
0.0000000000000000e+00 2.2653923264628304e+01
2.1918578738840608e-01 1.9499894075573799e+01
-2.8317404080785380e-01 2.8317404080785380e-01
ITEM: ATOMS id type xs ys zs
1 2 0 0.000101774 0.5
2 2 0.025 0.0500038 0.5
3 2 0.05 0.000101774 0.5
4 2 0.075 0.0500038 0.5
5 2 0.1 0.000101774 0.5
6 2 0.125 0.0500038 0.5
7 2 0.15 0.000101774 0.5
8 2 0.175 0.0500038 0.5
9 2 0.2 0.000101774 0.5
10 2 0.225 0.0500038 0.5
11 2 0.25 0.000101774 0.5
12 2 0.275 0.0500038 0.5
13 2 0.3 0.000101774 0.5
14 2 0.325 0.0500038 0.5
15 2 0.35 0.000101774 0.5
16 2 0.375 0.0500038 0.5
17 2 0.4 0.000101774 0.5
18 2 0.425 0.0500038 0.5
19 2 0.45 0.000101774 0.5
20 2 0.475 0.0500038 0.5
41 2 3.57546e-18 0.0997011 0.5
42 1 0.0250091 0.149426 0.5
43 2 0.05 0.0997011 0.5
44 1 0.0750124 0.149427 0.5
45 2 0.1 0.0997011 0.5
46 1 0.125015 0.149428 0.5
47 2 0.15 0.0997011 0.5
48 1 0.175016 0.14943 0.5
49 2 0.2 0.0997011 0.5
50 1 0.225017 0.149432 0.5
51 2 0.25 0.0997011 0.5
52 1 0.275016 0.149434 0.5
53 2 0.3 0.0997011 0.5
54 1 0.325014 0.149435 0.5
55 2 0.35 0.0997011 0.5
56 1 0.375011 0.149436 0.5
57 2 0.4 0.0997011 0.5
58 1 0.425007 0.149436 0.5
59 2 0.45 0.0997011 0.5
60 1 0.475003 0.149436 0.5
81 1 1.43706e-05 0.199147 0.5
82 1 0.0250272 0.248869 0.5
83 1 0.0500213 0.19915 0.5
84 1 0.0750366 0.248873 0.5
85 1 0.100027 0.199153 0.5
86 1 0.125044 0.24888 0.5
87 1 0.150031 0.199157 0.5
88 1 0.175049 0.248888 0.5
89 1 0.200033 0.199161 0.5
90 1 0.22505 0.248896 0.5
91 1 0.250032 0.199166 0.5
92 1 0.275048 0.248903 0.5
93 1 0.30003 0.19917 0.5
94 1 0.325043 0.24891 0.5
95 1 0.350025 0.199172 0.5
96 1 0.375035 0.248914 0.5
97 1 0.400019 0.199174 0.5
98 1 0.425025 0.248916 0.5
99 1 0.450012 0.199174 0.5
100 1 0.475014 0.248915 0.5
121 1 3.04988e-05 0.298584 0.5
122 1 0.0250492 0.348302 0.5
123 1 0.050044 0.29859 0.5
124 1 0.075065 0.348312 0.5
125 1 0.100055 0.298599 0.5
126 1 0.125078 0.348327 0.5
127 1 0.150064 0.29861 0.5
128 1 0.175086 0.348344 0.5
129 1 0.200068 0.298623 0.5
130 1 0.22509 0.348363 0.5
131 1 0.250068 0.298635 0.5
132 1 0.275088 0.34838 0.5
133 1 0.300064 0.298646 0.5
134 1 0.325081 0.348395 0.5
135 1 0.350055 0.298655 0.5
136 1 0.375068 0.348406 0.5
137 1 0.400043 0.29866 0.5
138 1 0.425051 0.348412 0.5
139 1 0.450029 0.298661 0.5
140 1 0.475033 0.348412 0.5
161 1 5.23752e-05 0.39801 0.5
162 1 0.0250786 0.447724 0.5
163 1 0.0500727 0.398021 0.5
164 1 0.075101 0.447742 0.5
165 1 0.10009 0.398038 0.5
166 1 0.12512 0.447767 0.5
167 1 0.150104 0.39806 0.5
168 1 0.175134 0.447798 0.5
169 1 0.200113 0.398085 0.5
170 1 0.225143 0.447832 0.5
171 1 0.250115 0.39811 0.5
172 1 0.275143 0.447866 0.5
173 1 0.30011 0.398133 0.5
174 1 0.325136 0.447895 0.5
175 1 0.350099 0.398152 0.5
176 1 0.375119 0.447918 0.5
177 1 0.400081 0.398164 0.5
178 1 0.425095 0.447931 0.5
179 1 0.450059 0.398169 0.5
180 1 0.475066 0.447934 0.5
201 1 8.31037e-05 0.497422 0.5
202 1 0.0251167 0.547131 0.5
203 1 0.0501096 0.497439 0.5
204 1 0.0751443 0.547159 0.5
205 1 0.100134 0.497467 0.5
206 1 0.12517 0.547197 0.5
207 1 0.150154 0.497503 0.5
208 1 0.175191 0.547245 0.5
209 1 0.200169 0.497545 0.5
210 1 0.225208 0.5473 0.5
211 1 0.250177 0.497589 0.5
212 1 0.275216 0.547357 0.5
213 1 0.300176 0.497632 0.5
214 1 0.325214 0.547411 0.5
215 1 0.350164 0.497669 0.5
216 1 0.375197 0.547456 0.5
217 1 0.400142 0.497695 0.5
218 1 0.425166 0.547486 0.5
219 1 0.45011 0.497708 0.5
220 1 0.475124 0.547496 0.5
241 1 0.000123821 0.596819 0.5
242 1 0.0251612 0.646526 0.5
243 1 0.050153 0.596844 0.5
244 1 0.0751894 0.646563 0.5
245 1 0.100181 0.596884 0.5
246 1 0.125219 0.646614 0.5
247 1 0.150208 0.596935 0.5
248 1 0.175249 0.646679 0.5
249 1 0.200233 0.596997 0.5
250 1 0.225277 0.646757 0.5
251 1 0.250252 0.597066 0.5
252 1 0.275301 0.646844 0.5
253 1 0.300262 0.597138 0.5
254 1 0.325313 0.646935 0.5
255 1 0.350257 0.597206 0.5
256 1 0.375308 0.647021 0.5
257 1 0.400234 0.59726 0.5
258 1 0.425277 0.647087 0.5
259 1 0.450193 0.597292 0.5
260 1 0.475221 0.647119 0.5
281 1 0.00017168 0.696206 0.5
282 1 0.0252049 0.745915 0.5
283 1 0.0501963 0.696239 0.5
284 1 0.0752263 0.745959 0.5
285 1 0.100224 0.696288 0.5
286 1 0.125254 0.746018 0.5
287 1 0.150255 0.696352 0.5
288 1 0.175289 0.746094 0.5
289 1 0.20029 0.696432 0.5
290 1 0.22533 0.746191 0.5
291 1 0.250325 0.696527 0.5
292 1 0.275374 0.746308 0.5
293 1 0.300355 0.696636 0.5
294 1 0.325416 0.746444 0.5
295 1 0.350373 0.696752 0.5
296 1 0.375443 0.746593 0.5
297 1 0.400368 0.696861 0.5
298 1 0.42544 0.746736 0.5
299 1 0.450327 0.696941 0.5
300 1 0.475384 0.746834 0.5
321 1 0.000218254 0.795595 0.5
322 1 0.0252367 0.84531 0.5
323 1 0.0502295 0.795631 0.5
324 1 0.0752433 0.845353 0.5
325 1 0.100249 0.795683 0.5
326 1 0.125261 0.845412 0.5
327 1 0.150277 0.795752 0.5
328 1 0.175291 0.84549 0.5
329 1 0.200317 0.795842 0.5
330 1 0.225336 0.845593 0.5
331 1 0.250366 0.795956 0.5
332 1 0.275395 0.845727 0.5
333 1 0.300423 0.796099 0.5
334 1 0.325468 0.845899 0.5
335 1 0.350481 0.79627 0.5
336 1 0.375549 0.846114 0.5
337 1 0.400525 0.796463 0.5
338 1 0.425621 0.846368 0.5
339 1 0.450531 0.79666 0.5
340 1 0.475652 0.846659 0.5
361 1 0.000250472 0.894998 0.5
362 1 0.025245 0.944724 0.5
363 1 0.0502413 0.895032 0.5
364 1 0.0752313 0.944761 0.5
365 1 0.100244 0.89508 0.5
366 1 0.125231 0.944812 0.5
367 1 0.150261 0.895144 0.5
368 1 0.175245 0.944882 0.5
369 1 0.200292 0.895231 0.5
370 1 0.225275 0.944978 0.5
371 1 0.250341 0.895348 0.5
372 1 0.275325 0.945108 0.5
373 1 0.30041 0.895503 0.5
374 1 0.325402 0.945284 0.5
375 1 0.350502 0.895707 0.5
376 1 0.375515 0.945521 0.5
377 1 0.400616 0.895974 0.5
378 1 0.425681 0.945841 0.5
379 3 0.450734 0.896309 0.5
380 3 0.475924 0.946377 0.5
401 1 0.000255446 0.994638 0.5
402 1 0.0502244 0.994664 0.5
403 1 0.100206 0.994703 0.5
404 1 0.150201 0.994758 0.5
405 1 0.200209 0.994835 0.5
406 1 0.250232 0.99494 0.5
407 1 0.300277 0.995083 0.5
408 1 0.350355 0.995277 0.5
409 1 0.400484 0.995539 0.5
410 3 0.450703 0.995897 0.5
21 2 0.5 0.000101774 0.5
22 2 0.525 0.0500038 0.5
23 2 0.55 0.000101774 0.5
24 2 0.575 0.0500038 0.5
25 2 0.6 0.000101774 0.5
26 2 0.625 0.0500038 0.5
27 2 0.65 0.000101774 0.5
28 2 0.675 0.0500038 0.5
29 2 0.7 0.000101774 0.5
30 2 0.725 0.0500038 0.5
31 2 0.75 0.000101774 0.5
32 2 0.775 0.0500038 0.5
33 2 0.8 0.000101774 0.5
34 2 0.825 0.0500038 0.5
35 2 0.85 0.000101774 0.5
36 2 0.875 0.0500038 0.5
37 2 0.9 0.000101774 0.5
38 2 0.925 0.0500038 0.5
39 2 0.95 0.000101774 0.5
40 2 0.975 0.0500038 0.5
61 2 0.5 0.0997011 0.5
62 1 0.525 0.149435 0.5
63 2 0.55 0.0997011 0.5
64 1 0.574997 0.149434 0.5
65 2 0.6 0.0997011 0.5
66 1 0.624994 0.149433 0.5
67 2 0.65 0.0997011 0.5
68 1 0.674993 0.149431 0.5
69 2 0.7 0.0997011 0.5
70 1 0.724992 0.14943 0.5
71 2 0.75 0.0997011 0.5
72 1 0.774993 0.149428 0.5
73 2 0.8 0.0997011 0.5
74 1 0.824995 0.149427 0.5
75 2 0.85 0.0997011 0.5
76 1 0.874998 0.149426 0.5
77 2 0.9 0.0997011 0.5
78 1 0.925001 0.149425 0.5
79 2 0.95 0.0997011 0.5
80 1 0.975005 0.149425 0.5
101 1 0.500004 0.199173 0.5
102 1 0.525003 0.248913 0.5
103 1 0.549998 0.199171 0.5
104 1 0.574994 0.248908 0.5
105 1 0.599992 0.199168 0.5
106 1 0.624987 0.248902 0.5
107 1 0.649988 0.199164 0.5
108 1 0.674982 0.248895 0.5
109 1 0.699986 0.19916 0.5
110 1 0.724981 0.248888 0.5
111 1 0.749987 0.199156 0.5
112 1 0.774983 0.248881 0.5
113 1 0.799989 0.199153 0.5
114 1 0.824988 0.248875 0.5
115 1 0.849994 0.19915 0.5
116 1 0.874996 0.24887 0.5
117 1 0.9 0.199147 0.5
118 1 0.925006 0.248867 0.5
119 1 0.950007 0.199147 0.5
120 1 0.975017 0.248867 0.5
141 1 0.500015 0.298659 0.5
142 1 0.525014 0.348406 0.5
143 1 0.550001 0.298653 0.5
144 1 0.574996 0.348396 0.5
145 1 0.599989 0.298645 0.5
146 1 0.624983 0.348382 0.5
147 1 0.64998 0.298635 0.5
148 1 0.674974 0.348366 0.5
149 1 0.699976 0.298623 0.5
150 1 0.724971 0.348349 0.5
151 1 0.749977 0.298612 0.5
152 1 0.774975 0.348332 0.5
153 1 0.799981 0.298601 0.5
154 1 0.824984 0.348317 0.5
155 1 0.84999 0.298592 0.5
156 1 0.874997 0.348306 0.5
157 1 0.900002 0.298585 0.5
158 1 0.925014 0.348299 0.5
159 1 0.950016 0.298583 0.5
160 1 0.975032 0.348298 0.5
181 1 0.500035 0.398166 0.5
182 1 0.525036 0.447925 0.5
183 1 0.550011 0.398155 0.5
184 1 0.575007 0.447907 0.5
185 1 0.599991 0.398138 0.5
186 1 0.624984 0.44788 0.5
187 1 0.649976 0.398117 0.5
188 1 0.67497 0.447849 0.5
189 1 0.699969 0.398093 0.5
190 1 0.724965 0.447815 0.5
191 1 0.749969 0.398068 0.5
192 1 0.77497 0.447781 0.5
193 1 0.799977 0.398045 0.5
194 1 0.824984 0.447752 0.5
195 1 0.849991 0.398026 0.5
196 1 0.875005 0.44773 0.5
197 1 0.90001 0.398013 0.5
198 1 0.925029 0.447718 0.5
199 1 0.950031 0.398008 0.5
200 1 0.975054 0.447716 0.5
221 1 0.500072 0.497705 0.5
222 1 0.525077 0.547484 0.5
223 1 0.550034 0.497687 0.5
224 1 0.575031 0.547453 0.5
225 1 0.600001 0.497657 0.5
226 1 0.624994 0.547405 0.5
227 1 0.649977 0.497617 0.5
228 1 0.674971 0.547347 0.5
229 1 0.699965 0.497572 0.5
230 1 0.724965 0.547285 0.5
231 1 0.749966 0.497526 0.5
232 1 0.774975 0.547225 0.5
233 1 0.799979 0.497483 0.5
234 1 0.824997 0.547174 0.5
235 1 0.85 0.497449 0.5
236 1 0.875026 0.547138 0.5
237 1 0.900027 0.497426 0.5
238 1 0.925057 0.547119 0.5
239 1 0.950055 0.497417 0.5
240 1 0.975087 0.547118 0.5
261 1 0.500138 0.597296 0.5
262 1 0.525149 0.647109 0.5
263 1 0.550078 0.597269 0.5
264 1 0.575075 0.647058 0.5
265 1 0.600024 0.597217 0.5
266 1 0.625016 0.646973 0.5
267 1 0.649986 0.597145 0.5
268 1 0.674984 0.646866 0.5
269 1 0.69997 0.597062 0.5
270 1 0.724982 0.646753 0.5
271 1 0.749975 0.596979 0.5
272 1 0.775004 0.64665 0.5
273 1 0.799998 0.596906 0.5
274 1 0.825037 0.646572 0.5
275 1 0.850028 0.596852 0.5
276 1 0.875072 0.646524 0.5
277 1 0.900061 0.59682 0.5
278 1 0.925104 0.646503 0.5
279 1 0.950093 0.59681 0.5
280 1 0.975133 0.646505 0.5
301 1 0.500251 0.696969 0.5
302 1 0.525278 0.746848 0.5
303 1 0.550155 0.696935 0.5
304 1 0.575153 0.746768 0.5
305 1 0.600067 0.696842 0.5
306 1 0.625056 0.746606 0.5
307 1 0.65001 0.696708 0.5
308 1 0.675022 0.746397 0.5
309 1 0.699996 0.696554 0.5
310 1 0.725048 0.746187 0.5
311 1 0.75002 0.696408 0.5
312 1 0.775091 0.746032 0.5
313 1 0.800057 0.696298 0.5
314 1 0.825128 0.745938 0.5
315 1 0.850092 0.696229 0.5
316 1 0.875154 0.745892 0.5
317 1 0.900123 0.696196 0.5
318 1 0.925172 0.745879 0.5
319 1 0.950148 0.696191 0.5
320 1 0.975188 0.745888 0.5
341 1 0.500451 0.796781 0.5
342 1 0.525524 0.846817 0.5
343 1 0.550295 0.796762 0.5
344 1 0.575283 0.846706 0.5
345 1 0.600137 0.79659 0.5
346 1 0.625122 0.846339 0.5
347 1 0.650061 0.796308 0.5
348 1 0.675174 0.845839 0.5
349 1 0.700095 0.795994 0.5
350 1 0.725242 0.845524 0.5
351 1 0.750149 0.795775 0.5
352 1 0.775276 0.845364 0.5
353 1 0.800186 0.79565 0.5
354 1 0.825277 0.845294 0.5
355 1 0.850203 0.795591 0.5
356 1 0.875264 0.845268 0.5
357 1 0.900209 0.79557 0.5
358 1 0.92525 0.845266 0.5
359 1 0.950213 0.795573 0.5
360 1 0.97524 0.845281 0.5
381 3 0.50082 0.89681 0.5
382 3 0.526152 0.947554 0.5
383 3 0.550567 0.897014 0.5
384 3 0.575415 0.947682 0.5
385 3 0.600217 0.896619 0.5
386 3 0.625635 0.945821 0.5
387 3 0.650323 0.895746 0.5
388 3 0.67567 0.945114 0.5
389 3 0.700399 0.895285 0.5
390 3 0.725608 0.944828 0.5
391 3 0.750409 0.895077 0.5
392 3 0.775521 0.944725 0.5
393 1 0.800382 0.895004 0.5
394 1 0.825438 0.944701 0.5
395 1 0.85034 0.894976 0.5
396 1 0.875368 0.944688 0.5
397 1 0.900301 0.894968 0.5
398 1 0.925312 0.944688 0.5
399 1 0.950271 0.894977 0.5
400 1 0.975272 0.9447 0.5
411 3 0.501142 0.996877 0.5
412 3 0.551989 1.00302 0.5
413 3 0.601585 0.99648 0.5
414 3 0.65124 0.99531 0.5
415 3 0.700945 0.994875 0.5
416 3 0.750721 0.994703 0.5
417 1 0.800561 0.994657 0.5
418 1 0.850448 0.994634 0.5
419 1 0.900364 0.994623 0.5
420 1 0.950301 0.994624 0.5
ITEM: TIMESTEP
182
ITEM: NUMBER OF ATOMS
420
ITEM: BOX BOUNDS pp ss pp
0.0000000000000000e+00 2.2653923264628304e+01
2.1918578738840608e-01 1.9560036564806666e+01
-2.8317404080785380e-01 2.8317404080785380e-01
ITEM: ATOMS id type xs ys zs
1 2 0 0.000101458 0.5
2 2 0.025 0.0498483 0.5
3 2 0.05 0.000101458 0.5
4 2 0.075 0.0498483 0.5
5 2 0.1 0.000101458 0.5
6 2 0.125 0.0498483 0.5
7 2 0.15 0.000101458 0.5
8 2 0.175 0.0498483 0.5
9 2 0.2 0.000101458 0.5
10 2 0.225 0.0498483 0.5
11 2 0.25 0.000101458 0.5
12 2 0.275 0.0498483 0.5
13 2 0.3 0.000101458 0.5
14 2 0.325 0.0498483 0.5
15 2 0.35 0.000101458 0.5
16 2 0.375 0.0498483 0.5
17 2 0.4 0.000101458 0.5
18 2 0.425 0.0498483 0.5
19 2 0.45 0.000101458 0.5
20 2 0.475 0.0498483 0.5
41 2 3.57546e-18 0.0993911 0.5
42 1 0.0250126 0.148965 0.5
43 2 0.05 0.0993911 0.5
44 1 0.0750165 0.148966 0.5
45 2 0.1 0.0993911 0.5
46 1 0.125019 0.148968 0.5
47 2 0.15 0.0993911 0.5
48 1 0.175021 0.14897 0.5
49 2 0.2 0.0993911 0.5
50 1 0.225022 0.148972 0.5
51 2 0.25 0.0993911 0.5
52 1 0.275021 0.148973 0.5
53 2 0.3 0.0993911 0.5
54 1 0.325018 0.148975 0.5
55 2 0.35 0.0993911 0.5
56 1 0.375015 0.148976 0.5
57 2 0.4 0.0993911 0.5
58 1 0.425011 0.148976 0.5
59 2 0.45 0.0993911 0.5
60 1 0.475007 0.148976 0.5
81 1 2.09069e-05 0.198536 0.5
82 1 0.0250378 0.248106 0.5
83 1 0.0500289 0.198538 0.5
84 1 0.0750487 0.248111 0.5
85 1 0.100036 0.198542 0.5
86 1 0.125057 0.248117 0.5
87 1 0.15004 0.198546 0.5
88 1 0.175063 0.248126 0.5
89 1 0.200043 0.198551 0.5
90 1 0.225064 0.248135 0.5
91 1 0.250042 0.198555 0.5
92 1 0.275062 0.248143 0.5
93 1 0.300039 0.198559 0.5
94 1 0.325056 0.24815 0.5
95 1 0.350034 0.198562 0.5
96 1 0.375047 0.248155 0.5
97 1 0.400027 0.198564 0.5
98 1 0.425036 0.248157 0.5
99 1 0.450019 0.198564 0.5
100 1 0.475024 0.248157 0.5
121 1 4.36901e-05 0.29767 0.5
122 1 0.025067 0.347235 0.5
123 1 0.0500591 0.297675 0.5
124 1 0.0750851 0.347246 0.5
125 1 0.100072 0.297685 0.5
126 1 0.1251 0.347261 0.5
127 1 0.150082 0.297697 0.5
128 1 0.17511 0.34728 0.5
129 1 0.200087 0.297711 0.5
130 1 0.225114 0.3473 0.5
131 1 0.250087 0.297724 0.5
132 1 0.275112 0.347319 0.5
133 1 0.300082 0.297736 0.5
134 1 0.325103 0.347336 0.5
135 1 0.350073 0.297745 0.5
136 1 0.375089 0.347348 0.5
137 1 0.40006 0.297751 0.5
138 1 0.425071 0.347354 0.5
139 1 0.450044 0.297753 0.5
140 1 0.47505 0.347355 0.5
161 1 7.24162e-05 0.39679 0.5
162 1 0.0251036 0.446351 0.5
163 1 0.0500955 0.396801 0.5
164 1 0.0751288 0.446369 0.5
165 1 0.100115 0.396819 0.5
166 1 0.12515 0.446396 0.5
167 1 0.150131 0.396843 0.5
168 1 0.175166 0.44643 0.5
169 1 0.200141 0.39687 0.5
170 1 0.225175 0.446467 0.5
171 1 0.250143 0.396897 0.5
172 1 0.275175 0.446503 0.5
173 1 0.300138 0.396923 0.5
174 1 0.325167 0.446536 0.5
175 1 0.350125 0.396943 0.5
176 1 0.375148 0.446561 0.5
177 1 0.400105 0.396957 0.5
178 1 0.425122 0.446575 0.5
179 1 0.450081 0.396963 0.5
180 1 0.47509 0.446578 0.5
201 1 0.000110004 0.495895 0.5
202 1 0.0251486 0.54545 0.5
203 1 0.0501396 0.495913 0.5
204 1 0.0751791 0.545479 0.5
205 1 0.100166 0.495942 0.5
206 1 0.125207 0.54552 0.5
207 1 0.150189 0.495981 0.5
208 1 0.17523 0.545572 0.5
209 1 0.200205 0.496026 0.5
210 1 0.225247 0.545631 0.5
211 1 0.250213 0.496074 0.5
212 1 0.275255 0.545692 0.5
213 1 0.300211 0.49612 0.5
214 1 0.325251 0.54575 0.5
215 1 0.350198 0.49616 0.5
216 1 0.375232 0.545798 0.5
217 1 0.400173 0.496189 0.5
218 1 0.425199 0.54583 0.5
219 1 0.450138 0.496203 0.5
220 1 0.475154 0.545841 0.5
241 1 0.000157097 0.594983 0.5
242 1 0.0251988 0.644536 0.5
243 1 0.0501893 0.59501 0.5
244 1 0.0752297 0.644575 0.5
245 1 0.10022 0.595051 0.5
246 1 0.125261 0.64463 0.5
247 1 0.150249 0.595107 0.5
248 1 0.175292 0.6447 0.5
249 1 0.200275 0.595173 0.5
250 1 0.225321 0.644783 0.5
251 1 0.250293 0.595247 0.5
252 1 0.275344 0.644876 0.5
253 1 0.300302 0.595324 0.5
254 1 0.325354 0.644972 0.5
255 1 0.350296 0.595396 0.5
256 1 0.375346 0.645062 0.5
257 1 0.40027 0.595453 0.5
258 1 0.425313 0.64513 0.5
259 1 0.450226 0.595487 0.5
260 1 0.475255 0.645163 0.5
281 1 0.000210134 0.69406 0.5
282 1 0.0252463 0.743615 0.5
283 1 0.0502374 0.694095 0.5
284 1 0.0752697 0.743661 0.5
285 1 0.100267 0.694147 0.5
286 1 0.125299 0.743725 0.5
287 1 0.1503 0.694216 0.5
288 1 0.175334 0.743808 0.5
289 1 0.200334 0.694302 0.5
290 1 0.225374 0.743911 0.5
291 1 0.250369 0.694404 0.5
292 1 0.275417 0.744035 0.5
293 1 0.300398 0.694519 0.5
294 1 0.325456 0.744177 0.5
295 1 0.350413 0.694639 0.5
296 1 0.375481 0.74433 0.5
297 1 0.400405 0.694752 0.5
298 1 0.425476 0.744476 0.5
299 1 0.450362 0.694834 0.5
300 1 0.475418 0.744574 0.5
321 1 0.00025998 0.793138 0.5
322 1 0.0252795 0.8427 0.5
323 1 0.0502726 0.793177 0.5
324 1 0.0752865 0.842746 0.5
325 1 0.100293 0.793233 0.5
326 1 0.125304 0.842811 0.5
327 1 0.150322 0.793309 0.5
328 1 0.175334 0.842897 0.5
329 1 0.200361 0.793406 0.5
330 1 0.225377 0.843008 0.5
331 1 0.250409 0.793528 0.5
332 1 0.275434 0.84315 0.5
333 1 0.300463 0.793677 0.5
334 1 0.325504 0.843328 0.5
335 1 0.350518 0.793853 0.5
336 1 0.375582 0.843545 0.5
337 1 0.40056 0.794048 0.5
338 1 0.425652 0.843799 0.5
339 1 0.450564 0.794246 0.5
340 1 0.475683 0.84409 0.5
361 1 0.000293192 0.892232 0.5
362 1 0.0252866 0.941804 0.5
363 1 0.0502836 0.892268 0.5
364 1 0.0752708 0.941845 0.5
365 1 0.100286 0.892321 0.5
366 1 0.125268 0.941903 0.5
367 1 0.150301 0.892393 0.5
368 1 0.17528 0.941982 0.5
369 1 0.200331 0.892489 0.5
370 1 0.225308 0.942087 0.5
371 1 0.250378 0.892614 0.5
372 1 0.275356 0.942225 0.5
373 1 0.300445 0.892776 0.5
374 1 0.325431 0.942407 0.5
375 1 0.350534 0.892985 0.5
376 1 0.375543 0.942646 0.5
377 1 0.400644 0.893252 0.5
378 1 0.425706 0.942963 0.5
379 3 0.450761 0.893583 0.5
380 3 0.475947 0.943492 0.5
401 1 0.000297191 0.991562 0.5
402 1 0.0502626 0.991591 0.5
403 1 0.100241 0.991635 0.5
404 1 0.150232 0.991699 0.5
405 1 0.200237 0.991785 0.5
406 1 0.250259 0.991899 0.5
407 1 0.300304 0.99205 0.5
408 1 0.350381 0.992249 0.5
409 1 0.400508 0.99251 0.5
410 3 0.450723 0.99286 0.5
21 2 0.5 0.000101458 0.5
22 2 0.525 0.0498483 0.5
23 2 0.55 0.000101458 0.5
24 2 0.575 0.0498483 0.5
25 2 0.6 0.000101458 0.5
26 2 0.625 0.0498483 0.5
27 2 0.65 0.000101458 0.5
28 2 0.675 0.0498483 0.5
29 2 0.7 0.000101458 0.5
30 2 0.725 0.0498483 0.5
31 2 0.75 0.000101458 0.5
32 2 0.775 0.0498483 0.5
33 2 0.8 0.000101458 0.5
34 2 0.825 0.0498483 0.5
35 2 0.85 0.000101458 0.5
36 2 0.875 0.0498483 0.5
37 2 0.9 0.000101458 0.5
38 2 0.925 0.0498483 0.5
39 2 0.95 0.000101458 0.5
40 2 0.975 0.0498483 0.5
61 2 0.5 0.0993911 0.5
62 1 0.525003 0.148975 0.5
63 2 0.55 0.0993911 0.5
64 1 0.574999 0.148974 0.5
65 2 0.6 0.0993911 0.5
66 1 0.624996 0.148973 0.5
67 2 0.65 0.0993911 0.5
68 1 0.674994 0.148971 0.5
69 2 0.7 0.0993911 0.5
70 1 0.724994 0.148969 0.5
71 2 0.75 0.0993911 0.5
72 1 0.774995 0.148968 0.5
73 2 0.8 0.0993911 0.5
74 1 0.824997 0.148966 0.5
75 2 0.85 0.0993911 0.5
76 1 0.875 0.148965 0.5
77 2 0.9 0.0993911 0.5
78 1 0.925004 0.148965 0.5
79 2 0.95 0.0993911 0.5
80 1 0.975008 0.148965 0.5
101 1 0.50001 0.198563 0.5
102 1 0.525012 0.248154 0.5
103 1 0.550003 0.198561 0.5
104 1 0.575001 0.248149 0.5
105 1 0.599996 0.198558 0.5
106 1 0.624992 0.248143 0.5
107 1 0.649991 0.198554 0.5
108 1 0.674987 0.248135 0.5
109 1 0.699989 0.19855 0.5
110 1 0.724985 0.248127 0.5
111 1 0.749989 0.198545 0.5
112 1 0.774987 0.24812 0.5
113 1 0.799992 0.198541 0.5
114 1 0.824993 0.248113 0.5
115 1 0.849997 0.198538 0.5
116 1 0.875002 0.248107 0.5
117 1 0.900004 0.198536 0.5
118 1 0.925013 0.248104 0.5
119 1 0.950012 0.198535 0.5
120 1 0.975026 0.248104 0.5
141 1 0.500027 0.297751 0.5
142 1 0.525028 0.347349 0.5
143 1 0.550011 0.297745 0.5
144 1 0.575009 0.347339 0.5
145 1 0.599997 0.297736 0.5
146 1 0.624993 0.347324 0.5
147 1 0.649988 0.297725 0.5
148 1 0.674983 0.347306 0.5
149 1 0.699983 0.297713 0.5
150 1 0.72498 0.347287 0.5
151 1 0.749983 0.2977 0.5