ITEM: TIMESTEP
0
ITEM: NUMBER OF ATOMS
420
ITEM: BOX BOUNDS pp ss pp
0.0000000000000000e+00 2.2653923264628304e+01
2.1918578738840608e-01 2.0501962279681717e+01
-2.8317404080785380e-01 2.8317404080785380e-01
ITEM: ATOMS id type xs ys zs
1 2 0 9.67461e-05 0.5
2 2 0.025 0.0475333 0.5
3 2 0.05 9.67461e-05 0.5
4 2 0.075 0.0475333 0.5
5 2 0.1 9.67461e-05 0.5
6 2 0.125 0.0475333 0.5
7 2 0.15 9.67461e-05 0.5
8 2 0.175 0.0475333 0.5
9 2 0.2 9.67461e-05 0.5
10 2 0.225 0.0475333 0.5
11 2 0.25 9.67461e-05 0.5
12 2 0.275 0.0475333 0.5
13 2 0.3 9.67461e-05 0.5
14 2 0.325 0.0475333 0.5
15 2 0.35 9.67461e-05 0.5
16 2 0.375 0.0475333 0.5
17 2 0.4 9.67461e-05 0.5
18 2 0.425 0.0475333 0.5
19 2 0.45 9.67461e-05 0.5
20 2 0.475 0.0475333 0.5
41 2 3.57546e-18 0.0947754 0.5
42 1 0.025 0.142009 0.5
43 2 0.05 0.0947754 0.5
44 1 0.075 0.142009 0.5
45 2 0.1 0.0947754 0.5
46 1 0.125 0.142009 0.5
47 2 0.15 0.0947754 0.5
48 1 0.175 0.142009 0.5
49 2 0.2 0.0947754 0.5
50 1 0.225 0.142009 0.5
51 2 0.25 0.0947754 0.5
52 1 0.275 0.142009 0.5
53 2 0.3 0.0947754 0.5
54 1 0.325 0.142009 0.5
55 2 0.35 0.0947754 0.5
56 1 0.375 0.142009 0.5
57 2 0.4 0.0947754 0.5
58 1 0.425 0.142009 0.5
59 2 0.45 0.0947754 0.5
60 1 0.475 0.142009 0.5
81 1 2.74429e-20 0.189265 0.5
82 1 0.025 0.236519 0.5
83 1 0.05 0.189265 0.5
84 1 0.075 0.236519 0.5
85 1 0.1 0.189265 0.5
86 1 0.125 0.236519 0.5
87 1 0.15 0.189265 0.5
88 1 0.175 0.236519 0.5
89 1 0.2 0.189265 0.5
90 1 0.225 0.236519 0.5
91 1 0.25 0.189265 0.5
92 1 0.275 0.236519 0.5
93 1 0.3 0.189265 0.5
94 1 0.325 0.236519 0.5
95 1 0.35 0.189265 0.5
96 1 0.375 0.236519 0.5
97 1 0.4 0.189265 0.5
98 1 0.425 0.236519 0.5
99 1 0.45 0.189265 0.5
100 1 0.475 0.236519 0.5
121 1 0 0.28378 0.5
122 1 0.025 0.331045 0.5
123 1 0.05 0.28378 0.5
124 1 0.075 0.331045 0.5
125 1 0.1 0.28378 0.5
126 1 0.125 0.331045 0.5
127 1 0.15 0.28378 0.5
128 1 0.175 0.331045 0.5
129 1 0.2 0.28378 0.5
130 1 0.225 0.331045 0.5
131 1 0.25 0.28378 0.5
132 1 0.275 0.331045 0.5
133 1 0.3 0.28378 0.5
134 1 0.325 0.331045 0.5
135 1 0.35 0.28378 0.5
136 1 0.375 0.331045 0.5
137 1 0.4 0.28378 0.5
138 1 0.425 0.331045 0.5
139 1 0.45 0.28378 0.5
140 1 0.475 0.331045 0.5
161 1 0 0.378304 0.5
162 1 0.025 0.425565 0.5
163 1 0.05 0.378304 0.5
164 1 0.075 0.425565 0.5
165 1 0.1 0.378304 0.5
166 1 0.125 0.425565 0.5
167 1 0.15 0.378304 0.5
168 1 0.175 0.425565 0.5
169 1 0.2 0.378304 0.5
170 1 0.225 0.425565 0.5
171 1 0.25 0.378304 0.5
172 1 0.275 0.425565 0.5
173 1 0.3 0.378304 0.5
174 1 0.325 0.425565 0.5
175 1 0.35 0.378304 0.5
176 1 0.375 0.425565 0.5
177 1 0.4 0.378304 0.5
178 1 0.425 0.425565 0.5
179 1 0.45 0.378304 0.5
180 1 0.475 0.425565 0.5
201 1 0 0.472827 0.5
202 1 0.025 0.52009 0.5
203 1 0.05 0.472827 0.5
204 1 0.075 0.52009 0.5
205 1 0.1 0.472827 0.5
206 1 0.125 0.52009 0.5
207 1 0.15 0.472827 0.5
208 1 0.175 0.52009 0.5
209 1 0.2 0.472827 0.5
210 1 0.225 0.52009 0.5
211 1 0.25 0.472827 0.5
212 1 0.275 0.52009 0.5
213 1 0.3 0.472827 0.5
214 1 0.325 0.52009 0.5
215 1 0.35 0.472827 0.5
216 1 0.375 0.52009 0.5
217 1 0.4 0.472827 0.5
218 1 0.425 0.52009 0.5
219 1 0.45 0.472827 0.5
220 1 0.475 0.52009 0.5
241 1 0 0.56735 0.5
242 1 0.025 0.614609 0.5
243 1 0.05 0.56735 0.5
244 1 0.075 0.614609 0.5
245 1 0.1 0.56735 0.5
246 1 0.125 0.614609 0.5
247 1 0.15 0.56735 0.5
248 1 0.175 0.614609 0.5
249 1 0.2 0.56735 0.5
250 1 0.225 0.614609 0.5
251 1 0.25 0.56735 0.5
252 1 0.275 0.614609 0.5
253 1 0.3 0.56735 0.5
254 1 0.325 0.614609 0.5
255 1 0.35 0.56735 0.5
256 1 0.375 0.614609 0.5
257 1 0.4 0.56735 0.5
258 1 0.425 0.614609 0.5
259 1 0.45 0.56735 0.5
260 1 0.475 0.614609 0.5
281 1 2.18851e-18 0.661874 0.5
282 1 0.025 0.709136 0.5
283 1 0.05 0.661874 0.5
284 1 0.075 0.709136 0.5
285 1 0.1 0.661874 0.5
286 1 0.125 0.709136 0.5
287 1 0.15 0.661874 0.5
288 1 0.175 0.709136 0.5
289 1 0.2 0.661874 0.5
290 1 0.225 0.709136 0.5
291 1 0.25 0.661874 0.5
292 1 0.275 0.709136 0.5
293 1 0.3 0.661874 0.5
294 1 0.325 0.709136 0.5
295 1 0.35 0.661874 0.5
296 1 0.375 0.709136 0.5
297 1 0.4 0.661874 0.5
298 1 0.425 0.709136 0.5
299 1 0.45 0.661874 0.5
300 1 0.475 0.709136 0.5
321 1 0 0.756389 0.5
322 1 0.025 0.803645 0.5
323 1 0.05 0.756389 0.5
324 1 0.075 0.803645 0.5
325 1 0.1 0.756389 0.5
326 1 0.125 0.803645 0.5
327 1 0.15 0.756389 0.5
328 1 0.175 0.803645 0.5
329 1 0.2 0.756389 0.5
330 1 0.225 0.803645 0.5
331 1 0.25 0.756389 0.5
332 1 0.275 0.803645 0.5
333 1 0.3 0.756389 0.5
334 1 0.325 0.803645 0.5
335 1 0.35 0.756389 0.5
336 1 0.375 0.803645 0.5
337 1 0.4 0.756389 0.5
338 1 0.425 0.803645 0.5
339 1 0.45 0.756389 0.5
340 1 0.475 0.803645 0.5
361 1 5.74281e-19 0.850879 0.5
362 1 0.025 0.898121 0.5
363 1 0.05 0.850879 0.5
364 1 0.075 0.898121 0.5
365 1 0.1 0.850879 0.5
366 1 0.125 0.898121 0.5
367 1 0.15 0.850879 0.5
368 1 0.175 0.898121 0.5
369 1 0.2 0.850879 0.5
370 1 0.225 0.898121 0.5
371 1 0.25 0.850879 0.5
372 1 0.275 0.898121 0.5
373 1 0.3 0.850879 0.5
374 1 0.325 0.898121 0.5
375 1 0.35 0.850879 0.5
376 1 0.375 0.898121 0.5
377 1 0.4 0.850879 0.5
378 1 0.425 0.898121 0.5
379 3 0.45 0.850879 0.5
380 3 0.475 0.898121 0.5
401 1 3.60804e-19 0.945558 0.5
402 1 0.05 0.945558 0.5
403 1 0.1 0.945558 0.5
404 1 0.15 0.945558 0.5
405 1 0.2 0.945558 0.5
406 1 0.25 0.945558 0.5
407 1 0.3 0.945558 0.5
408 1 0.35 0.945558 0.5
409 1 0.4 0.945558 0.5
410 3 0.45 0.945558 0.5
21 2 0.5 9.67461e-05 0.5
22 2 0.525 0.0475333 0.5
23 2 0.55 9.67461e-05 0.5
24 2 0.575 0.0475333 0.5
25 2 0.6 9.67461e-05 0.5
26 2 0.625 0.0475333 0.5
27 2 0.65 9.67461e-05 0.5
28 2 0.675 0.0475333 0.5
29 2 0.7 9.67461e-05 0.5
30 2 0.725 0.0475333 0.5
31 2 0.75 9.67461e-05 0.5
32 2 0.775 0.0475333 0.5
33 2 0.8 9.67461e-05 0.5
34 2 0.825 0.0475333 0.5
35 2 0.85 9.67461e-05 0.5
36 2 0.875 0.0475333 0.5
37 2 0.9 9.67461e-05 0.5
38 2 0.925 0.0475333 0.5
39 2 0.95 9.67461e-05 0.5
40 2 0.975 0.0475333 0.5
61 2 0.5 0.0947754 0.5
62 1 0.525 0.142009 0.5
63 2 0.55 0.0947754 0.5
64 1 0.575 0.142009 0.5
65 2 0.6 0.0947754 0.5
66 1 0.625 0.142009 0.5
67 2 0.65 0.0947754 0.5
68 1 0.675 0.142009 0.5
69 2 0.7 0.0947754 0.5
70 1 0.725 0.142009 0.5
71 2 0.75 0.0947754 0.5
72 1 0.775 0.142009 0.5
73 2 0.8 0.0947754 0.5
74 1 0.825 0.142009 0.5
75 2 0.85 0.0947754 0.5
76 1 0.875 0.142009 0.5
77 2 0.9 0.0947754 0.5
78 1 0.925 0.142009 0.5
79 2 0.95 0.0947754 0.5
80 1 0.975 0.142009 0.5
101 1 0.5 0.189265 0.5
102 1 0.525 0.236519 0.5
103 1 0.55 0.189265 0.5
104 1 0.575 0.236519 0.5
105 1 0.6 0.189265 0.5
106 1 0.625 0.236519 0.5
107 1 0.65 0.189265 0.5
108 1 0.675 0.236519 0.5
109 1 0.7 0.189265 0.5
110 1 0.725 0.236519 0.5
111 1 0.75 0.189265 0.5
112 1 0.775 0.236519 0.5
113 1 0.8 0.189265 0.5
114 1 0.825 0.236519 0.5
115 1 0.85 0.189265 0.5
116 1 0.875 0.236519 0.5
117 1 0.9 0.189265 0.5
118 1 0.925 0.236519 0.5
119 1 0.95 0.189265 0.5
120 1 0.975 0.236519 0.5
141 1 0.5 0.28378 0.5
142 1 0.525 0.331045 0.5
143 1 0.55 0.28378 0.5
144 1 0.575 0.331045 0.5
145 1 0.6 0.28378 0.5
146 1 0.625 0.331045 0.5
147 1 0.65 0.28378 0.5
148 1 0.675 0.331045 0.5
149 1 0.7 0.28378 0.5
150 1 0.725 0.331045 0.5
151 1 0.75 0.28378 0.5
152 1 0.775 0.331045 0.5
153 1 0.8 0.28378 0.5
154 1 0.825 0.331045 0.5
155 1 0.85 0.28378 0.5
156 1 0.875 0.331045 0.5
157 1 0.9 0.28378 0.5
158 1 0.925 0.331045 0.5
159 1 0.95 0.28378 0.5
160 1 0.975 0.331045 0.5
181 1 0.5 0.378304 0.5
182 1 0.525 0.425565 0.5
183 1 0.55 0.378304 0.5
184 1 0.575 0.425565 0.5
185 1 0.6 0.378304 0.5
186 1 0.625 0.425565 0.5
187 1 0.65 0.378304 0.5
188 1 0.675 0.425565 0.5
189 1 0.7 0.378304 0.5
190 1 0.725 0.425565 0.5
191 1 0.75 0.378304 0.5
192 1 0.775 0.425565 0.5
193 1 0.8 0.378304 0.5
194 1 0.825 0.425565 0.5
195 1 0.85 0.378304 0.5
196 1 0.875 0.425565 0.5
197 1 0.9 0.378304 0.5
198 1 0.925 0.425565 0.5
199 1 0.95 0.378304 0.5
200 1 0.975 0.425565 0.5
221 1 0.5 0.472827 0.5
222 1 0.525 0.52009 0.5
223 1 0.55 0.472827 0.5
224 1 0.575 0.52009 0.5
225 1 0.6 0.472827 0.5
226 1 0.625 0.52009 0.5
227 1 0.65 0.472827 0.5
228 1 0.675 0.52009 0.5
229 1 0.7 0.472827 0.5
230 1 0.725 0.52009 0.5
231 1 0.75 0.472827 0.5
232 1 0.775 0.52009 0.5
233 1 0.8 0.472827 0.5
234 1 0.825 0.52009 0.5
235 1 0.85 0.472827 0.5
236 1 0.875 0.52009 0.5
237 1 0.9 0.472827 0.5
238 1 0.925 0.52009 0.5
239 1 0.95 0.472827 0.5
240 1 0.975 0.52009 0.5
261 1 0.5 0.56735 0.5
262 1 0.525 0.614609 0.5
263 1 0.55 0.56735 0.5
264 1 0.575 0.614609 0.5
265 1 0.6 0.56735 0.5
266 1 0.625 0.614609 0.5
267 1 0.65 0.56735 0.5
268 1 0.675 0.614609 0.5
269 1 0.7 0.56735 0.5
270 1 0.725 0.614609 0.5
271 1 0.75 0.56735 0.5
272 1 0.775 0.614609 0.5
273 1 0.8 0.56735 0.5
274 1 0.825 0.614609 0.5
275 1 0.85 0.56735 0.5
276 1 0.875 0.614609 0.5
277 1 0.9 0.56735 0.5
278 1 0.925 0.614609 0.5
279 1 0.95 0.56735 0.5
280 1 0.975 0.614609 0.5
301 1 0.5 0.661874 0.5
302 1 0.525 0.709136 0.5
303 1 0.55 0.661874 0.5
304 1 0.575 0.709136 0.5
305 1 0.6 0.661874 0.5
306 1 0.625 0.709136 0.5
307 1 0.65 0.661874 0.5
308 1 0.675 0.709136 0.5
309 1 0.7 0.661874 0.5
310 1 0.725 0.709136 0.5
311 1 0.75 0.661874 0.5
312 1 0.775 0.709136 0.5
313 1 0.8 0.661874 0.5
314 1 0.825 0.709136 0.5
315 1 0.85 0.661874 0.5
316 1 0.875 0.709136 0.5
317 1 0.9 0.661874 0.5
318 1 0.925 0.709136 0.5
319 1 0.95 0.661874 0.5
320 1 0.975 0.709136 0.5
341 1 0.5 0.756389 0.5
342 1 0.525 0.803645 0.5
343 1 0.55 0.756389 0.5
344 1 0.575 0.803645 0.5
345 1 0.6 0.756389 0.5
346 1 0.625 0.803645 0.5
347 1 0.65 0.756389 0.5
348 1 0.675 0.803645 0.5
349 1 0.7 0.756389 0.5
350 1 0.725 0.803645 0.5
351 1 0.75 0.756389 0.5
352 1 0.775 0.803645 0.5
353 1 0.8 0.756389 0.5
354 1 0.825 0.803645 0.5
355 1 0.85 0.756389 0.5
356 1 0.875 0.803645 0.5
357 1 0.9 0.756389 0.5
358 1 0.925 0.803645 0.5
359 1 0.95 0.756389 0.5
360 1 0.975 0.803645 0.5
381 3 0.5 0.850879 0.5
382 3 0.525 0.898121 0.5
383 3 0.55 0.850879 0.5
384 3 0.575 0.898121 0.5
385 3 0.6 0.850879 0.5
386 3 0.625 0.898121 0.5
387 3 0.65 0.850879 0.5
388 3 0.675 0.898121 0.5
389 3 0.7 0.850879 0.5
390 3 0.725 0.898121 0.5
391 3 0.75 0.850879 0.5
392 3 0.775 0.898121 0.5
393 1 0.8 0.850879 0.5
394 1 0.825 0.898121 0.5
395 1 0.85 0.850879 0.5
396 1 0.875 0.898121 0.5
397 1 0.9 0.850879 0.5
398 1 0.925 0.898121 0.5
399 1 0.95 0.850879 0.5
400 1 0.975 0.898121 0.5
411 3 0.5 0.945558 0.5
412 3 0.617995 0.999903 0.5
413 3 0.6 0.945558 0.5
414 3 0.65 0.945558 0.5
415 3 0.7 0.945558 0.5
416 3 0.75 0.945558 0.5
417 1 0.8 0.945558 0.5
418 1 0.85 0.945558 0.5
419 1 0.9 0.945558 0.5
420 1 0.95 0.945558 0.5
ITEM: TIMESTEP
150
ITEM: NUMBER OF ATOMS
420
ITEM: BOX BOUNDS pp ss pp
0.0000000000000000e+00 2.2653923264628304e+01
2.1918578738840608e-01 2.0381077238114298e+01
-2.8317404080785380e-01 2.8317404080785380e-01
ITEM: ATOMS id type xs ys zs
1 2 0 9.73262e-05 0.5
2 2 0.025 0.0478183 0.5
3 2 0.05 9.73262e-05 0.5
4 2 0.075 0.0478183 0.5
5 2 0.1 9.73262e-05 0.5
6 2 0.125 0.0478183 0.5
7 2 0.15 9.73262e-05 0.5
8 2 0.175 0.0478183 0.5
9 2 0.2 9.73262e-05 0.5
10 2 0.225 0.0478183 0.5
11 2 0.25 9.73262e-05 0.5
12 2 0.275 0.0478183 0.5
13 2 0.3 9.73262e-05 0.5
14 2 0.325 0.0478183 0.5
15 2 0.35 9.73262e-05 0.5
16 2 0.375 0.0478183 0.5
17 2 0.4 9.73262e-05 0.5
18 2 0.425 0.0478183 0.5
19 2 0.45 9.73262e-05 0.5
20 2 0.475 0.0478183 0.5
41 2 3.57546e-18 0.0953437 0.5
42 1 0.0249971 0.142881 0.5
43 2 0.05 0.0953437 0.5
44 1 0.0749981 0.142881 0.5
45 2 0.1 0.0953437 0.5
46 1 0.124999 0.142881 0.5
47 2 0.15 0.0953437 0.5
48 1 0.175 0.142882 0.5
49 2 0.2 0.0953437 0.5
50 1 0.225001 0.142882 0.5
51 2 0.25 0.0953437 0.5
52 1 0.275002 0.142883 0.5
53 2 0.3 0.0953437 0.5
54 1 0.325002 0.142883 0.5
55 2 0.35 0.0953437 0.5
56 1 0.375002 0.142884 0.5
57 2 0.4 0.0953437 0.5
58 1 0.425002 0.142884 0.5
59 2 0.45 0.0953437 0.5
60 1 0.475001 0.142885 0.5
81 1 -6.32849e-06 0.190419 0.5
82 1 0.0249917 0.237955 0.5
83 1 0.0499953 0.190418 0.5
84 1 0.0749941 0.237954 0.5
85 1 0.0999971 0.190418 0.5
86 1 0.124997 0.237955 0.5
87 1 0.149999 0.190419 0.5
88 1 0.174999 0.237955 0.5
89 1 0.200001 0.190419 0.5
90 1 0.225002 0.237957 0.5
91 1 0.250002 0.19042 0.5
92 1 0.275004 0.237959 0.5
93 1 0.300004 0.190422 0.5
94 1 0.325005 0.237962 0.5
95 1 0.350004 0.190423 0.5
96 1 0.375006 0.237964 0.5
97 1 0.400004 0.190424 0.5
98 1 0.425005 0.237966 0.5
99 1 0.450003 0.190426 0.5
100 1 0.475004 0.237968 0.5
410 3 0.449242 0.951222 0.5
122 1 0.0249861 0.333025 0.5
123 1 0.0499904 0.28549 0.5
124 1 0.0749894 0.333024 0.5
125 1 0.0999935 0.28549 0.5
126 1 0.124993 0.333024 0.5
127 1 0.149997 0.28549 0.5
128 1 0.174997 0.333026 0.5
129 1 0.2 0.285492 0.5
130 1 0.225001 0.333029 0.5
131 1 0.250003 0.285495 0.5
132 1 0.275005 0.333034 0.5
133 1 0.300006 0.285499 0.5
134 1 0.325007 0.333039 0.5
135 1 0.350007 0.285502 0.5
136 1 0.375008 0.333045 0.5
137 1 0.400007 0.285506 0.5
138 1 0.425007 0.33305 0.5
139 1 0.450005 0.285509 0.5
140 1 0.475004 0.333054 0.5
409 1 0.399466 0.951157 0.5
162 1 0.0249801 0.428092 0.5
163 1 0.0499848 0.380558 0.5
164 1 0.0749832 0.428089 0.5
165 1 0.0999885 0.380557 0.5
166 1 0.124987 0.428089 0.5
167 1 0.149993 0.380558 0.5
168 1 0.174992 0.428091 0.5
169 1 0.199998 0.380561 0.5
170 1 0.224998 0.428096 0.5
171 1 0.250002 0.380566 0.5
172 1 0.275003 0.428104 0.5
173 1 0.300006 0.380573 0.5
174 1 0.325007 0.428114 0.5
175 1 0.350009 0.380581 0.5
176 1 0.375009 0.428125 0.5
177 1 0.400009 0.380589 0.5
178 1 0.425008 0.428136 0.5
179 1 0.450006 0.380596 0.5
180 1 0.475004 0.428144 0.5
408 1 0.349613 0.951138 0.5
202 1 0.0249743 0.523154 0.5
203 1 0.0499782 0.475621 0.5
204 1 0.0749751 0.52315 0.5
205 1 0.099981 0.475619 0.5
206 1 0.124977 0.523148 0.5
207 1 0.149985 0.47562 0.5
208 1 0.174981 0.52315 0.5
209 1 0.19999 0.475624 0.5
210 1 0.224987 0.523156 0.5
211 1 0.249997 0.475631 0.5
212 1 0.274995 0.523168 0.5
213 1 0.300003 0.475643 0.5
214 1 0.325002 0.523184 0.5
215 1 0.350008 0.475657 0.5
216 1 0.375007 0.523204 0.5
217 1 0.400009 0.475672 0.5
218 1 0.425008 0.523224 0.5
219 1 0.450006 0.475686 0.5
220 1 0.475003 0.523241 0.5
407 1 0.299715 0.951137 0.5
242 1 0.0249697 0.618216 0.5
243 1 0.049971 0.570682 0.5
244 1 0.0749652 0.61821 0.5
245 1 0.0999701 0.570678 0.5
246 1 0.124962 0.618206 0.5
247 1 0.149971 0.570677 0.5
248 1 0.174961 0.618205 0.5
249 1 0.199975 0.57068 0.5
250 1 0.224964 0.618209 0.5
251 1 0.249981 0.570688 0.5
252 1 0.274972 0.618221 0.5
253 1 0.299991 0.570705 0.5
254 1 0.324984 0.618243 0.5
255 1 0.35 0.570729 0.5
256 1 0.374996 0.618277 0.5
257 1 0.400006 0.570756 0.5
258 1 0.425003 0.618315 0.5
259 1 0.450005 0.570782 0.5
260 1 0.474999 0.618349 0.5
406 1 0.24979 0.951144 0.5
282 1 0.0249678 0.713282 0.5
283 1 0.049964 0.665745 0.5
284 1 0.0749546 0.713275 0.5
285 1 0.0999559 0.665739 0.5
286 1 0.124942 0.713267 0.5
287 1 0.14995 0.665733 0.5
288 1 0.174932 0.71326 0.5
289 1 0.199947 0.665731 0.5
290 1 0.224926 0.713257 0.5
291 1 0.249949 0.665736 0.5
292 1 0.274926 0.713263 0.5
293 1 0.299957 0.665752 0.5
294 1 0.324935 0.713284 0.5
295 1 0.349972 0.665784 0.5
296 1 0.374954 0.713327 0.5
297 1 0.399989 0.665832 0.5
298 1 0.424979 0.713398 0.5
299 1 0.449997 0.665885 0.5
300 1 0.474989 0.71347 0.5
405 1 0.199847 0.951154 0.5
322 1 0.0249694 0.808356 0.5
323 1 0.049959 0.760814 0.5
324 1 0.0749463 0.808348 0.5
325 1 0.0999409 0.760805 0.5
326 1 0.124923 0.808337 0.5
327 1 0.149923 0.760796 0.5
328 1 0.174899 0.808325 0.5
329 1 0.199908 0.760787 0.5
330 1 0.224875 0.808314 0.5
331 1 0.249896 0.760782 0.5
332 1 0.274854 0.808308 0.5
333 1 0.299891 0.760788 0.5
334 1 0.32484 0.808313 0.5
335 1 0.349899 0.760814 0.5
336 1 0.374842 0.808343 0.5
337 1 0.399925 0.760873 0.5
338 1 0.424873 0.808421 0.5
339 1 0.449965 0.760979 0.5
340 1 0.474942 0.80859 0.5
404 1 0.149893 0.951165 0.5
362 1 0.0249747 0.903442 0.5
363 1 0.0499581 0.855893 0.5
364 1 0.0749445 0.903434 0.5
365 1 0.0999302 0.855883 0.5
366 1 0.124912 0.903423 0.5
367 1 0.1499 0.855871 0.5
368 1 0.174875 0.90341 0.5
369 1 0.199868 0.855858 0.5
370 1 0.224831 0.903397 0.5
371 1 0.249833 0.855845 0.5
372 1 0.274779 0.903385 0.5
373 1 0.299796 0.855837 0.5
374 1 0.324718 0.903377 0.5
375 1 0.349764 0.85584 0.5
376 1 0.374647 0.903381 0.5
377 1 0.399747 0.855872 0.5
378 1 0.424576 0.903415 0.5
379 3 0.449774 0.85597 0.5
380 3 0.474542 0.903529 0.5
403 1 0.0999303 0.951176 0.5
402 1 0.0499631 0.951185 0.5
101 1 0.500002 0.190427 0.5
141 1 0.500003 0.285512 0.5
411 3 0.49895 0.951452 0.5
21 2 0.5 9.73262e-05 0.5
22 2 0.525 0.0478183 0.5
23 2 0.55 9.73262e-05 0.5
24 2 0.575 0.0478183 0.5
25 2 0.6 9.73262e-05 0.5
26 2 0.625 0.0478183 0.5
27 2 0.65 9.73262e-05 0.5
28 2 0.675 0.0478183 0.5
29 2 0.7 9.73262e-05 0.5
30 2 0.725 0.0478183 0.5
31 2 0.75 9.73262e-05 0.5
32 2 0.775 0.0478183 0.5
33 2 0.8 9.73262e-05 0.5
34 2 0.825 0.0478183 0.5
35 2 0.85 9.73262e-05 0.5
36 2 0.875 0.0478183 0.5
37 2 0.9 9.73262e-05 0.5
38 2 0.925 0.0478183 0.5
39 2 0.95 9.73262e-05 0.5
40 2 0.975 0.0478183 0.5
61 2 0.5 0.0953437 0.5
62 1 0.525001 0.142885 0.5
63 2 0.55 0.0953437 0.5
64 1 0.575 0.142885 0.5
65 2 0.6 0.0953437 0.5
66 1 0.624999 0.142885 0.5
67 2 0.65 0.0953437 0.5
68 1 0.674998 0.142885 0.5
69 2 0.7 0.0953437 0.5
70 1 0.724997 0.142885 0.5
71 2 0.75 0.0953437 0.5
72 1 0.774996 0.142884 0.5
73 2 0.8 0.0953437 0.5
74 1 0.824996 0.142883 0.5
75 2 0.85 0.0953437 0.5
76 1 0.874996 0.142883 0.5
77 2 0.9 0.0953437 0.5
78 1 0.924996 0.142882 0.5
79 2 0.95 0.0953437 0.5
80 1 0.974996 0.142882 0.5
420 1 0.950026 0.951195 0.5
102 1 0.525001 0.237969 0.5
103 1 0.55 0.190427 0.5
104 1 0.574999 0.23797 0.5
105 1 0.599998 0.190427 0.5
106 1 0.624996 0.23797 0.5
107 1 0.649996 0.190427 0.5
108 1 0.674993 0.237969 0.5
109 1 0.699995 0.190427 0.5
110 1 0.724991 0.237968 0.5
111 1 0.749993 0.190426 0.5
112 1 0.774989 0.237966 0.5
113 1 0.799992 0.190424 0.5
114 1 0.824988 0.237964 0.5
115 1 0.849992 0.190423 0.5
116 1 0.874988 0.237961 0.5
117 1 0.899992 0.190421 0.5
118 1 0.924988 0.237959 0.5
119 1 0.949992 0.19042 0.5
120 1 0.97499 0.237957 0.5
419 1 0.900063 0.951195 0.5
142 1 0.525001 0.333057 0.5
143 1 0.549999 0.285514 0.5
144 1 0.574996 0.333059 0.5
145 1 0.599995 0.285514 0.5
146 1 0.624991 0.333059 0.5
147 1 0.649992 0.285513 0.5
148 1 0.674986 0.333057 0.5
149 1 0.699988 0.285512 0.5
150 1 0.724983 0.333053 0.5
151 1 0.749986 0.285509 0.5
152 1 0.77498 0.333049 0.5
153 1 0.799984 0.285506 0.5
154 1 0.82498 0.333043 0.5
155 1 0.849984 0.285502 0.5
156 1 0.87498 0.333038 0.5
157 1 0.899984 0.285498 0.5
158 1 0.924981 0.333033 0.5
159 1 0.949986 0.285494 0.5
160 1 0.974983 0.333028 0.5
181 1 0.500002 0.380601 0.5
182 1 0.524998 0.42815 0.5
183 1 0.549996 0.380604 0.5
184 1 0.57499 0.428153 0.5
185 1 0.59999 0.380605 0.5
186 1 0.624983 0.428152 0.5
187 1 0.649984 0.380603 0.5
188 1 0.674977 0.428147 0.5
189 1 0.69998 0.380599 0.5
190 1 0.724973 0.42814 0.5
191 1 0.749977 0.380593 0.5
192 1 0.774971 0.42813 0.5
193 1 0.799975 0.380586 0.5
194 1 0.824971 0.42812 0.5
195 1 0.849976 0.380579 0.5
196 1 0.874973 0.428111 0.5
197 1 0.899977 0.380571 0.5
198 1 0.924975 0.428103 0.5
199 1 0.949979 0.380565 0.5
200 1 0.974977 0.428096 0.5
221 1 0.5 0.475696 0.5
222 1 0.524993 0.523252 0.5
223 1 0.549991 0.475702 0.5
224 1 0.574981 0.523256 0.5
225 1 0.599982 0.475702 0.5
226 1 0.624971 0.523252 0.5
227 1 0.649974 0.475698 0.5
228 1 0.674964 0.523241 0.5
229 1 0.699968 0.475689 0.5
230 1 0.724961 0.523225 0.5
231 1 0.749966 0.475677 0.5
232 1 0.774963 0.523208 0.5
233 1 0.799967 0.475663 0.5
234 1 0.824967 0.523192 0.5
235 1 0.849969 0.475651 0.5
236 1 0.87497 0.523178 0.5
237 1 0.899972 0.47564 0.5
238 1 0.924972 0.523168 0.5
239 1 0.949974 0.475632 0.5
240 1 0.974974 0.52316 0.5
261 1 0.499996 0.570802 0.5
262 1 0.524986 0.61837 0.5
263 1 0.549983 0.570812 0.5
264 1 0.574969 0.618374 0.5
265 1 0.599969 0.57081 0.5
266 1 0.624956 0.618362 0.5
267 1 0.649959 0.570798 0.5
268 1 0.674951 0.618336 0.5
269 1 0.699956 0.570778 0.5
270 1 0.724956 0.618304 0.5
271 1 0.749959 0.570755 0.5
272 1 0.774966 0.618274 0.5
273 1 0.799965 0.570733 0.5
274 1 0.824974 0.618252 0.5
275 1 0.849971 0.570716 0.5
276 1 0.874978 0.618238 0.5
277 1 0.899973 0.570704 0.5
278 1 0.924977 0.618229 0.5
279 1 0.949974 0.570695 0.5
280 1 0.974974 0.618222 0.5
301 1 0.49999 0.665926 0.5
302 1 0.524977 0.713517 0.5
303 1 0.549971 0.665944 0.5
304 1 0.574953 0.713521 0.5
305 1 0.599953 0.665935 0.5
306 1 0.624942 0.713483 0.5
307 1 0.649946 0.665903 0.5
308 1 0.674954 0.713419 0.5
309 1 0.699954 0.665858 0.5
310 1 0.72498 0.713357 0.5
311 1 0.74997 0.665816 0.5
312 1 0.774999 0.71332 0.5
313 1 0.799983 0.665787 0.5
314 1 0.825004 0.713303 0.5
315 1 0.849988 0.665772 0.5
316 1 0.875001 0.713296 0.5
317 1 0.899986 0.665763 0.5
318 1 0.924992 0.713291 0.5
319 1 0.949981 0.665757 0.5
320 1 0.974981 0.713287 0.5
341 1 0.499978 0.761079 0.5
342 1 0.52496 0.808722 0.5
343 1 0.549959 0.761121 0.5
344 1 0.574947 0.808723 0.5
345 1 0.599941 0.761085 0.5
346 1 0.624964 0.808598 0.5
347 1 0.649956 0.760995 0.5
348 1 0.675039 0.808436 0.5
349 1 0.7 0.760897 0.5
350 1 0.72508 0.808366 0.5
351 1 0.750028 0.760847 0.5
352 1 0.775075 0.808359 0.5
353 1 0.800032 0.760832 0.5
354 1 0.825058 0.808358 0.5
355 1 0.850024 0.760827 0.5
356 1 0.875037 0.808361 0.5
357 1 0.900011 0.760826 0.5
358 1 0.925015 0.808362 0.5
359 1 0.949995 0.760824 0.5
360 1 0.974992 0.808361 0.5
381 3 0.499901 0.856257 0.5
382 3 0.524829 0.904093 0.5
383 3 0.549952 0.85639 0.5
384 3 0.575068 0.90412 0.5
385 3 0.599992 0.856264 0.5
386 3 0.625336 0.903532 0.5
387 3 0.650122 0.855972 0.5
388 3 0.675353 0.903361 0.5
389 3 0.700174 0.855871 0.5
390 3 0.725236 0.903436 0.5
391 3 0.75014 0.855888 0.5
392 3 0.775169 0.903435 0.5
393 1 0.800106 0.855891 0.5
394 1 0.825116 0.90344 0.5
395 1 0.850072 0.855897 0.5
396 1 0.875073 0.903445 0.5
397 1 0.900041 0.855901 0.5
398 1 0.925037 0.903448 0.5
399 1 0.950012 0.855902 0.5
400 1 0.975005 0.903447 0.5
418 1 0.850107 0.951194 0.5
412 3 0.626467 0.999071 0.5
413 3 0.600962 0.951432 0.5
414 3 0.650714 0.950965 0.5
415 3 0.700357 0.951236 0.5
416 3 0.750245 0.951194 0.5
417 1 0.800166 0.951192 0.5
121 1 0.999988 0.285492 0.5
161 1 0.999982 0.380561 0.5
201 1 0.999976 0.475626 0.5
241 1 0.999973 0.570688 0.5
281 1 0.999973 0.665751 0.5
321 1 0.999977 0.76082 0.5
361 1 0.999985 0.855899 0.5
401 1 0.999994 0.951191 0.5
ITEM: TIMESTEP
182
ITEM: NUMBER OF ATOMS
420
ITEM: BOX BOUNDS pp ss pp
0.0000000000000000e+00 2.2653923264628304e+01
2.1918578738840608e-01 2.0364310966231493e+01
-2.8317404080785380e-01 2.8317404080785380e-01
ITEM: ATOMS id type xs ys zs
1 2 0 9.74072e-05 0.5
2 2 0.025 0.0478581 0.5
3 2 0.05 9.74072e-05 0.5
4 2 0.075 0.0478581 0.5
5 2 0.1 9.74072e-05 0.5
6 2 0.125 0.0478581 0.5
7 2 0.15 9.74072e-05 0.5
8 2 0.175 0.0478581 0.5
9 2 0.2 9.74072e-05 0.5
10 2 0.225 0.0478581 0.5
11 2 0.25 9.74072e-05 0.5
12 2 0.275 0.0478581 0.5
13 2 0.3 9.74072e-05 0.5
14 2 0.325 0.0478581 0.5
15 2 0.35 9.74072e-05 0.5
16 2 0.375 0.0478581 0.5
17 2 0.4 9.74072e-05 0.5
18 2 0.425 0.0478581 0.5
19 2 0.45 9.74072e-05 0.5
20 2 0.475 0.0478581 0.5
41 2 3.57546e-18 0.095423 0.5
42 1 0.0249968 0.142999 0.5
43 2 0.05 0.095423 0.5
44 1 0.0749981 0.142999 0.5
45 2 0.1 0.095423 0.5
46 1 0.124999 0.142999 0.5
47 2 0.15 0.095423 0.5
48 1 0.175001 0.142999 0.5
49 2 0.2 0.095423 0.5
50 1 0.225002 0.143 0.5
51 2 0.25 0.095423 0.5
52 1 0.275002 0.143001 0.5
53 2 0.3 0.095423 0.5
54 1 0.325003 0.143001 0.5
55 2 0.35 0.095423 0.5
56 1 0.375003 0.143002 0.5
57 2 0.4 0.095423 0.5
58 1 0.425002 0.143003 0.5
59 2 0.45 0.095423 0.5
60 1 0.475001 0.143003 0.5
411 3 0.498945 0.952251 0.5
82 1 0.0249909 0.238148 0.5
83 1 0.049995 0.190574 0.5
84 1 0.0749941 0.238148 0.5
85 1 0.0999974 0.190574 0.5
86 1 0.124997 0.238148 0.5
87 1 0.15 0.190574 0.5
88 1 0.175001 0.23815 0.5
89 1 0.200002 0.190576 0.5
90 1 0.225003 0.238152 0.5
91 1 0.250004 0.190577 0.5
92 1 0.275005 0.238155 0.5
93 1 0.300005 0.190579 0.5
94 1 0.325006 0.238158 0.5
95 1 0.350005 0.190581 0.5
96 1 0.375006 0.238161 0.5
97 1 0.400004 0.190582 0.5
98 1 0.425005 0.238164 0.5
99 1 0.450003 0.190584 0.5
100 1 0.475002 0.238166 0.5
410 3 0.449236 0.952018 0.5
122 1 0.024985 0.333293 0.5
123 1 0.0499898 0.285721 0.5
124 1 0.0749894 0.333292 0.5
125 1 0.0999939 0.285721 0.5
126 1 0.124994 0.333293 0.5
127 1 0.149998 0.285722 0.5
128 1 0.174999 0.333296 0.5
129 1 0.200002 0.285725 0.5
130 1 0.225003 0.333301 0.5
131 1 0.250005 0.285729 0.5
132 1 0.275006 0.333307 0.5
133 1 0.300007 0.285734 0.5
134 1 0.325008 0.333314 0.5
135 1 0.350008 0.285739 0.5
136 1 0.375008 0.333321 0.5
137 1 0.400007 0.285743 0.5
138 1 0.425006 0.333327 0.5
139 1 0.450004 0.285747 0.5
140 1 0.475003 0.333332 0.5
409 1 0.399457 0.95195 0.5
162 1 0.0249793 0.428434 0.5
163 1 0.0499843 0.380863 0.5
164 1 0.0749834 0.428432 0.5
165 1 0.099989 0.380863 0.5
166 1 0.124988 0.428433 0.5
167 1 0.149994 0.380866 0.5
168 1 0.174994 0.428438 0.5
169 1 0.199999 0.380871 0.5
170 1 0.224999 0.428445 0.5
171 1 0.250004 0.380878 0.5
172 1 0.275005 0.428456 0.5
173 1 0.300008 0.380887 0.5
174 1 0.325008 0.428469 0.5
175 1 0.350009 0.380897 0.5
176 1 0.375009 0.428482 0.5
177 1 0.400008 0.380906 0.5
178 1 0.425007 0.428494 0.5
179 1 0.450005 0.380914 0.5
180 1 0.475002 0.428503 0.5
408 1 0.349602 0.951927 0.5
202 1 0.0249743 0.523571 0.5
203 1 0.0499782 0.476001 0.5
204 1 0.0749758 0.523569 0.5
205 1 0.0999817 0.476001 0.5
206 1 0.124978 0.523569 0.5
207 1 0.149986 0.476004 0.5
208 1 0.174982 0.523574 0.5
209 1 0.199992 0.47601 0.5
210 1 0.224988 0.523583 0.5
211 1 0.249998 0.476021 0.5
212 1 0.274996 0.523598 0.5
213 1 0.300004 0.476036 0.5
214 1 0.325003 0.523618 0.5
215 1 0.350008 0.476053 0.5
216 1 0.375007 0.523641 0.5
217 1 0.400009 0.47607 0.5
218 1 0.425007 0.523663 0.5
219 1 0.450005 0.476085 0.5
220 1 0.475 0.523681 0.5
407 1 0.299704 0.951923 0.5
242 1 0.0249711 0.618709 0.5
243 1 0.0499717 0.571138 0.5
244 1 0.0749663 0.618705 0.5
245 1 0.099971 0.571136 0.5
246 1 0.124963 0.618703 0.5
247 1 0.149972 0.571137 0.5
248 1 0.174962 0.618705 0.5
249 1 0.199976 0.571144 0.5
250 1 0.224965 0.618713 0.5
251 1 0.249982 0.571156 0.5
252 1 0.274972 0.618729 0.5
253 1 0.299991 0.571176 0.5
254 1 0.324984 0.618757 0.5
255 1 0.35 0.571204 0.5
256 1 0.374996 0.618794 0.5
257 1 0.400005 0.571234 0.5
258 1 0.425002 0.618835 0.5
259 1 0.450003 0.571262 0.5
260 1 0.474998 0.61887 0.5
406 1 0.249779 0.951926 0.5
282 1 0.0249704 0.713851 0.5
283 1 0.0499656 0.666277 0.5
284 1 0.0749558 0.713846 0.5
285 1 0.0999567 0.666273 0.5
286 1 0.124942 0.713842 0.5
287 1 0.14995 0.666271 0.5
288 1 0.174931 0.713838 0.5
289 1 0.199946 0.666273 0.5
290 1 0.224924 0.71384 0.5
291 1 0.249948 0.666282 0.5
292 1 0.274924 0.71385 0.5
293 1 0.299957 0.666303 0.5
294 1 0.324933 0.713876 0.5
295 1 0.349972 0.666339 0.5
296 1 0.374954 0.713924 0.5
297 1 0.399989 0.666391 0.5
298 1 0.424979 0.713998 0.5
299 1 0.449997 0.666446 0.5
300 1 0.47499 0.714073 0.5
405 1 0.199838 0.951933 0.5
322 1 0.0249726 0.809004 0.5
323 1 0.0499611 0.761424 0.5
324 1 0.074947 0.808998 0.5
325 1 0.0999411 0.761418 0.5
326 1 0.124921 0.808991 0.5
327 1 0.149922 0.761411 0.5
328 1 0.174896 0.808982 0.5
329 1 0.199905 0.761406 0.5
330 1 0.224871 0.808975 0.5
331 1 0.249893 0.761406 0.5
332 1 0.27485 0.808973 0.5
333 1 0.299889 0.761417 0.5
334 1 0.324836 0.808983 0.5
335 1 0.349897 0.761447 0.5
336 1 0.37484 0.809017 0.5
337 1 0.399924 0.761511 0.5
338 1 0.424873 0.8091 0.5
339 1 0.449965 0.761621 0.5
340 1 0.474944 0.809272 0.5
404 1 0.149886 0.951941 0.5
362 1 0.0249774 0.90417 0.5
363 1 0.0499596 0.856582 0.5
364 1 0.0749435 0.904165 0.5
365 1 0.0999288 0.856575 0.5
366 1 0.124908 0.904156 0.5
367 1 0.149897 0.856566 0.5
368 1 0.174868 0.904147 0.5
369 1 0.199862 0.856556 0.5
370 1 0.224823 0.904137 0.5
371 1 0.249826 0.856547 0.5
372 1 0.274771 0.904129 0.5
373 1 0.29979 0.856543 0.5
374 1 0.32471 0.904125 0.5
375 1 0.349758 0.856551 0.5
376 1 0.37464 0.904133 0.5
377 1 0.399744 0.856587 0.5
378 1 0.424572 0.904171 0.5
379 3 0.449774 0.856689 0.5
380 3 0.474541 0.904288 0.5
403 1 0.0999263 0.951948 0.5
402 1 0.0499629 0.951955 0.5
261 1 0.499994 0.571283 0.5
301 1 0.499989 0.666488 0.5
341 1 0.49998 0.761722 0.5
381 3 0.499905 0.85698 0.5
21 2 0.5 9.74072e-05 0.5
22 2 0.525 0.0478581 0.5
23 2 0.55 9.74072e-05 0.5
24 2 0.575 0.0478581 0.5
25 2 0.6 9.74072e-05 0.5
26 2 0.625 0.0478581 0.5
27 2 0.65 9.74072e-05 0.5
28 2 0.675 0.0478581 0.5
29 2 0.7 9.74072e-05 0.5
30 2 0.725 0.0478581 0.5
31 2 0.75 9.74072e-05 0.5
32 2 0.775 0.0478581 0.5
33 2 0.8 9.74072e-05 0.5
34 2 0.825 0.0478581 0.5
35 2 0.85 9.74072e-05 0.5
36 2 0.875 0.0478581 0.5
37 2 0.9 9.74072e-05 0.5
38 2 0.925 0.0478581 0.5
39 2 0.95 9.74072e-05 0.5
40 2 0.975 0.0478581 0.5
61 2 0.5 0.095423 0.5
62 1 0.525 0.143004 0.5
63 2 0.55 0.095423 0.5
64 1 0.574999 0.143004 0.5
65 2 0.6 0.095423 0.5
66 1 0.624997 0.143004 0.5
67 2 0.65 0.095423 0.5
68 1 0.674996 0.143003 0.5
69 2 0.7 0.095423 0.5
70 1 0.724995 0.143003 0.5
71 2 0.75 0.095423 0.5
72 1 0.774994 0.143002 0.5
73 2 0.8 0.095423 0.5
74 1 0.824994 0.143001 0.5
75 2 0.85 0.095423 0.5
76 1 0.874994 0.143 0.5
77 2 0.9 0.095423 0.5
78 1 0.924995 0.143 0.5
79 2 0.95 0.095423 0.5
80 1 0.974996 0.142999 0.5
420 1 0.950035 0.951962 0.5
102 1 0.524999 0.238167 0.5
103 1 0.549999 0.190585 0.5
104 1 0.574996 0.238168 0.5
105 1 0.599996 0.190585 0.5
106 1 0.624992 0.238167 0.5
107 1 0.649994 0.190585 0.5
108 1 0.674989 0.238166 0.5
109 1 0.699991 0.190584 0.5
110 1 0.724986 0.238164 0.5
111 1 0.74999 0.190582 0.5
112 1 0.774984 0.238161 0.5
113 1 0.799989 0.190581 0.5
114 1 0.824984 0.238158 0.5
115 1 0.849989 0.190579 0.5
116 1 0.874984 0.238155 0.5
117 1 0.89999 0.190577 0.5
118 1 0.924986 0.238152 0.5
119 1 0.949991 0.190575 0.5
120 1 0.974988 0.238149 0.5
419 1 0.900076 0.951962 0.5
142 1 0.524997 0.333335 0.5
143 1 0.549996 0.285751 0.5
144 1 0.574991 0.333336 0.5
145 1 0.599991 0.285751 0.5
146 1 0.624985 0.333335 0.5
147 1 0.649987 0.28575 0.5
148 1 0.67498 0.333332 0.5
149 1 0.699983 0.285747 0.5
150 1 0.724977 0.333327 0.5
151 1 0.74998 0.285743 0.5
152 1 0.774974 0.333321 0.5
153 1 0.799979 0.285739 0.5
154 1 0.824974 0.333314 0.5
155 1 0.849979 0.285734 0.5
156 1 0.874975 0.333307 0.5
157 1 0.899981 0.285729 0.5
158 1 0.924978 0.333301 0.5