ITEM: TIMESTEP
0
ITEM: NUMBER OF ATOMS
420
ITEM: BOX BOUNDS pp ss pp
0.0000000000000000e+00 2.2653923264628304e+01
2.1918578738840608e-01 1.9900721357216966e+01
-2.8317404080785380e-01 2.8317404080785380e-01
ITEM: ATOMS id type xs ys zs
1 2 0 9.97016e-05 0.5
2 2 0.025 0.0489854 0.5
3 2 0.05 9.97016e-05 0.5
4 2 0.075 0.0489854 0.5
5 2 0.1 9.97016e-05 0.5
6 2 0.125 0.0489854 0.5
7 2 0.15 9.97016e-05 0.5
8 2 0.175 0.0489854 0.5
9 2 0.2 9.97016e-05 0.5
10 2 0.225 0.0489854 0.5
11 2 0.25 9.97016e-05 0.5
12 2 0.275 0.0489854 0.5
13 2 0.3 9.97016e-05 0.5
14 2 0.325 0.0489854 0.5
15 2 0.35 9.97016e-05 0.5
16 2 0.375 0.0489854 0.5
17 2 0.4 9.97016e-05 0.5
18 2 0.425 0.0489854 0.5
19 2 0.45 9.97016e-05 0.5
20 2 0.475 0.0489854 0.5
41 2 3.57546e-18 0.0976707 0.5
42 1 0.025 0.146347 0.5
43 2 0.05 0.0976707 0.5
44 1 0.075 0.146347 0.5
45 2 0.1 0.0976707 0.5
46 1 0.125 0.146347 0.5
47 2 0.15 0.0976707 0.5
48 1 0.175 0.146347 0.5
49 2 0.2 0.0976707 0.5
50 1 0.225 0.146347 0.5
51 2 0.25 0.0976707 0.5
52 1 0.275 0.146347 0.5
53 2 0.3 0.0976707 0.5
54 1 0.325 0.146347 0.5
55 2 0.35 0.0976707 0.5
56 1 0.375 0.146347 0.5
57 2 0.4 0.0976707 0.5
58 1 0.425 0.146347 0.5
59 2 0.45 0.0976707 0.5
60 1 0.475 0.146347 0.5
81 1 2.74429e-20 0.195047 0.5
82 1 0.025 0.243744 0.5
83 1 0.05 0.195047 0.5
84 1 0.075 0.243744 0.5
85 1 0.1 0.195047 0.5
86 1 0.125 0.243744 0.5
87 1 0.15 0.195047 0.5
88 1 0.175 0.243744 0.5
89 1 0.2 0.195047 0.5
90 1 0.225 0.243744 0.5
91 1 0.25 0.195047 0.5
92 1 0.275 0.243744 0.5
93 1 0.3 0.195047 0.5
94 1 0.325 0.243744 0.5
95 1 0.35 0.195047 0.5
96 1 0.375 0.243744 0.5
97 1 0.4 0.195047 0.5
98 1 0.425 0.243744 0.5
99 1 0.45 0.195047 0.5
100 1 0.475 0.243744 0.5
121 1 0 0.292449 0.5
122 1 0.025 0.341158 0.5
123 1 0.05 0.292449 0.5
124 1 0.075 0.341158 0.5
125 1 0.1 0.292449 0.5
126 1 0.125 0.341158 0.5
127 1 0.15 0.292449 0.5
128 1 0.175 0.341158 0.5
129 1 0.2 0.292449 0.5
130 1 0.225 0.341158 0.5
131 1 0.25 0.292449 0.5
132 1 0.275 0.341158 0.5
133 1 0.3 0.292449 0.5
134 1 0.325 0.341158 0.5
135 1 0.35 0.292449 0.5
136 1 0.375 0.341158 0.5
137 1 0.4 0.292449 0.5
138 1 0.425 0.341158 0.5
139 1 0.45 0.292449 0.5
140 1 0.475 0.341158 0.5
161 1 0 0.389861 0.5
162 1 0.025 0.438565 0.5
163 1 0.05 0.389861 0.5
164 1 0.075 0.438565 0.5
165 1 0.1 0.389861 0.5
166 1 0.125 0.438565 0.5
167 1 0.15 0.389861 0.5
168 1 0.175 0.438565 0.5
169 1 0.2 0.389861 0.5
170 1 0.225 0.438565 0.5
171 1 0.25 0.389861 0.5
172 1 0.275 0.438565 0.5
173 1 0.3 0.389861 0.5
174 1 0.325 0.438565 0.5
175 1 0.35 0.389861 0.5
176 1 0.375 0.438565 0.5
177 1 0.4 0.389861 0.5
178 1 0.425 0.438565 0.5
179 1 0.45 0.389861 0.5
180 1 0.475 0.438565 0.5
201 1 0 0.487271 0.5
202 1 0.025 0.535978 0.5
203 1 0.05 0.487271 0.5
204 1 0.075 0.535978 0.5
205 1 0.1 0.487271 0.5
206 1 0.125 0.535978 0.5
207 1 0.15 0.487271 0.5
208 1 0.175 0.535978 0.5
209 1 0.2 0.487271 0.5
210 1 0.225 0.535978 0.5
211 1 0.25 0.487271 0.5
212 1 0.275 0.535978 0.5
213 1 0.3 0.487271 0.5
214 1 0.325 0.535978 0.5
215 1 0.35 0.487271 0.5
216 1 0.375 0.535978 0.5
217 1 0.4 0.487271 0.5
218 1 0.425 0.535978 0.5
219 1 0.45 0.487271 0.5
220 1 0.475 0.535978 0.5
241 1 0 0.584682 0.5
242 1 0.025 0.633385 0.5
243 1 0.05 0.584682 0.5
244 1 0.075 0.633385 0.5
245 1 0.1 0.584682 0.5
246 1 0.125 0.633385 0.5
247 1 0.15 0.584682 0.5
248 1 0.175 0.633385 0.5
249 1 0.2 0.584682 0.5
250 1 0.225 0.633385 0.5
251 1 0.25 0.584682 0.5
252 1 0.275 0.633385 0.5
253 1 0.3 0.584682 0.5
254 1 0.325 0.633385 0.5
255 1 0.35 0.584682 0.5
256 1 0.375 0.633385 0.5
257 1 0.4 0.584682 0.5
258 1 0.425 0.633385 0.5
259 1 0.45 0.584682 0.5
260 1 0.475 0.633385 0.5
281 1 2.18851e-18 0.682094 0.5
282 1 0.025 0.730799 0.5
283 1 0.05 0.682094 0.5
284 1 0.075 0.730799 0.5
285 1 0.1 0.682094 0.5
286 1 0.125 0.730799 0.5
287 1 0.15 0.682094 0.5
288 1 0.175 0.730799 0.5
289 1 0.2 0.682094 0.5
290 1 0.225 0.730799 0.5
291 1 0.25 0.682094 0.5
292 1 0.275 0.730799 0.5
293 1 0.3 0.682094 0.5
294 1 0.325 0.730799 0.5
295 1 0.35 0.682094 0.5
296 1 0.375 0.730799 0.5
297 1 0.4 0.682094 0.5
298 1 0.425 0.730799 0.5
299 1 0.45 0.682094 0.5
300 1 0.475 0.730799 0.5
321 1 0 0.779496 0.5
322 1 0.025 0.828195 0.5
323 1 0.05 0.779496 0.5
324 1 0.075 0.828195 0.5
325 1 0.1 0.779496 0.5
326 1 0.125 0.828195 0.5
327 1 0.15 0.779496 0.5
328 1 0.175 0.828195 0.5
329 1 0.2 0.779496 0.5
330 1 0.225 0.828195 0.5
331 1 0.25 0.779496 0.5
332 1 0.275 0.828195 0.5
333 1 0.3 0.779496 0.5
334 1 0.325 0.828195 0.5
335 1 0.35 0.779496 0.5
336 1 0.375 0.828195 0.5
337 1 0.4 0.779496 0.5
338 1 0.425 0.828195 0.5
339 1 0.45 0.779496 0.5
340 1 0.475 0.828195 0.5
361 1 5.74281e-19 0.876872 0.5
362 1 0.025 0.925558 0.5
363 1 0.05 0.876872 0.5
364 1 0.075 0.925558 0.5
365 1 0.1 0.876872 0.5
366 1 0.125 0.925558 0.5
367 1 0.15 0.876872 0.5
368 1 0.175 0.925558 0.5
369 1 0.2 0.876872 0.5
370 1 0.225 0.925558 0.5
371 1 0.25 0.876872 0.5
372 1 0.275 0.925558 0.5
373 1 0.3 0.876872 0.5
374 1 0.325 0.925558 0.5
375 1 0.35 0.876872 0.5
376 1 0.375 0.925558 0.5
377 1 0.4 0.876872 0.5
378 1 0.425 0.925558 0.5
379 3 0.45 0.876872 0.5
380 3 0.475 0.925558 0.5
401 1 3.60804e-19 0.974443 0.5
402 1 0.05 0.974443 0.5
403 1 0.1 0.974443 0.5
404 1 0.15 0.974443 0.5
405 1 0.2 0.974443 0.5
406 1 0.25 0.974443 0.5
407 1 0.3 0.974443 0.5
408 1 0.35 0.974443 0.5
409 1 0.4 0.974443 0.5
410 3 0.45 0.974443 0.5
21 2 0.5 9.97016e-05 0.5
22 2 0.525 0.0489854 0.5
23 2 0.55 9.97016e-05 0.5
24 2 0.575 0.0489854 0.5
25 2 0.6 9.97016e-05 0.5
26 2 0.625 0.0489854 0.5
27 2 0.65 9.97016e-05 0.5
28 2 0.675 0.0489854 0.5
29 2 0.7 9.97016e-05 0.5
30 2 0.725 0.0489854 0.5
31 2 0.75 9.97016e-05 0.5
32 2 0.775 0.0489854 0.5
33 2 0.8 9.97016e-05 0.5
34 2 0.825 0.0489854 0.5
35 2 0.85 9.97016e-05 0.5
36 2 0.875 0.0489854 0.5
37 2 0.9 9.97016e-05 0.5
38 2 0.925 0.0489854 0.5
39 2 0.95 9.97016e-05 0.5
40 2 0.975 0.0489854 0.5
61 2 0.5 0.0976707 0.5
62 1 0.525 0.146347 0.5
63 2 0.55 0.0976707 0.5
64 1 0.575 0.146347 0.5
65 2 0.6 0.0976707 0.5
66 1 0.625 0.146347 0.5
67 2 0.65 0.0976707 0.5
68 1 0.675 0.146347 0.5
69 2 0.7 0.0976707 0.5
70 1 0.725 0.146347 0.5
71 2 0.75 0.0976707 0.5
72 1 0.775 0.146347 0.5
73 2 0.8 0.0976707 0.5
74 1 0.825 0.146347 0.5
75 2 0.85 0.0976707 0.5
76 1 0.875 0.146347 0.5
77 2 0.9 0.0976707 0.5
78 1 0.925 0.146347 0.5
79 2 0.95 0.0976707 0.5
80 1 0.975 0.146347 0.5
101 1 0.5 0.195047 0.5
102 1 0.525 0.243744 0.5
103 1 0.55 0.195047 0.5
104 1 0.575 0.243744 0.5
105 1 0.6 0.195047 0.5
106 1 0.625 0.243744 0.5
107 1 0.65 0.195047 0.5
108 1 0.675 0.243744 0.5
109 1 0.7 0.195047 0.5
110 1 0.725 0.243744 0.5
111 1 0.75 0.195047 0.5
112 1 0.775 0.243744 0.5
113 1 0.8 0.195047 0.5
114 1 0.825 0.243744 0.5
115 1 0.85 0.195047 0.5
116 1 0.875 0.243744 0.5
117 1 0.9 0.195047 0.5
118 1 0.925 0.243744 0.5
119 1 0.95 0.195047 0.5
120 1 0.975 0.243744 0.5
141 1 0.5 0.292449 0.5
142 1 0.525 0.341158 0.5
143 1 0.55 0.292449 0.5
144 1 0.575 0.341158 0.5
145 1 0.6 0.292449 0.5
146 1 0.625 0.341158 0.5
147 1 0.65 0.292449 0.5
148 1 0.675 0.341158 0.5
149 1 0.7 0.292449 0.5
150 1 0.725 0.341158 0.5
151 1 0.75 0.292449 0.5
152 1 0.775 0.341158 0.5
153 1 0.8 0.292449 0.5
154 1 0.825 0.341158 0.5
155 1 0.85 0.292449 0.5
156 1 0.875 0.341158 0.5
157 1 0.9 0.292449 0.5
158 1 0.925 0.341158 0.5
159 1 0.95 0.292449 0.5
160 1 0.975 0.341158 0.5
181 1 0.5 0.389861 0.5
182 1 0.525 0.438565 0.5
183 1 0.55 0.389861 0.5
184 1 0.575 0.438565 0.5
185 1 0.6 0.389861 0.5
186 1 0.625 0.438565 0.5
187 1 0.65 0.389861 0.5
188 1 0.675 0.438565 0.5
189 1 0.7 0.389861 0.5
190 1 0.725 0.438565 0.5
191 1 0.75 0.389861 0.5
192 1 0.775 0.438565 0.5
193 1 0.8 0.389861 0.5
194 1 0.825 0.438565 0.5
195 1 0.85 0.389861 0.5
196 1 0.875 0.438565 0.5
197 1 0.9 0.389861 0.5
198 1 0.925 0.438565 0.5
199 1 0.95 0.389861 0.5
200 1 0.975 0.438565 0.5
221 1 0.5 0.487271 0.5
222 1 0.525 0.535978 0.5
223 1 0.55 0.487271 0.5
224 1 0.575 0.535978 0.5
225 1 0.6 0.487271 0.5
226 1 0.625 0.535978 0.5
227 1 0.65 0.487271 0.5
228 1 0.675 0.535978 0.5
229 1 0.7 0.487271 0.5
230 1 0.725 0.535978 0.5
231 1 0.75 0.487271 0.5
232 1 0.775 0.535978 0.5
233 1 0.8 0.487271 0.5
234 1 0.825 0.535978 0.5
235 1 0.85 0.487271 0.5
236 1 0.875 0.535978 0.5
237 1 0.9 0.487271 0.5
238 1 0.925 0.535978 0.5
239 1 0.95 0.487271 0.5
240 1 0.975 0.535978 0.5
261 1 0.5 0.584682 0.5
262 1 0.525 0.633385 0.5
263 1 0.55 0.584682 0.5
264 1 0.575 0.633385 0.5
265 1 0.6 0.584682 0.5
266 1 0.625 0.633385 0.5
267 1 0.65 0.584682 0.5
268 1 0.675 0.633385 0.5
269 1 0.7 0.584682 0.5
270 1 0.725 0.633385 0.5
271 1 0.75 0.584682 0.5
272 1 0.775 0.633385 0.5
273 1 0.8 0.584682 0.5
274 1 0.825 0.633385 0.5
275 1 0.85 0.584682 0.5
276 1 0.875 0.633385 0.5
277 1 0.9 0.584682 0.5
278 1 0.925 0.633385 0.5
279 1 0.95 0.584682 0.5
280 1 0.975 0.633385 0.5
301 1 0.5 0.682094 0.5
302 1 0.525 0.730799 0.5
303 1 0.55 0.682094 0.5
304 1 0.575 0.730799 0.5
305 1 0.6 0.682094 0.5
306 1 0.625 0.730799 0.5
307 1 0.65 0.682094 0.5
308 1 0.675 0.730799 0.5
309 1 0.7 0.682094 0.5
310 1 0.725 0.730799 0.5
311 1 0.75 0.682094 0.5
312 1 0.775 0.730799 0.5
313 1 0.8 0.682094 0.5
314 1 0.825 0.730799 0.5
315 1 0.85 0.682094 0.5
316 1 0.875 0.730799 0.5
317 1 0.9 0.682094 0.5
318 1 0.925 0.730799 0.5
319 1 0.95 0.682094 0.5
320 1 0.975 0.730799 0.5
341 1 0.5 0.779496 0.5
342 1 0.525 0.828195 0.5
343 1 0.55 0.779496 0.5
344 1 0.575 0.828195 0.5
345 1 0.6 0.779496 0.5
346 1 0.625 0.828195 0.5
347 1 0.65 0.779496 0.5
348 1 0.675 0.828195 0.5
349 1 0.7 0.779496 0.5
350 1 0.725 0.828195 0.5
351 1 0.75 0.779496 0.5
352 1 0.775 0.828195 0.5
353 1 0.8 0.779496 0.5
354 1 0.825 0.828195 0.5
355 1 0.85 0.779496 0.5
356 1 0.875 0.828195 0.5
357 1 0.9 0.779496 0.5
358 1 0.925 0.828195 0.5
359 1 0.95 0.779496 0.5
360 1 0.975 0.828195 0.5
381 3 0.5 0.876872 0.5
382 3 0.525 0.925558 0.5
383 3 0.55 0.876872 0.5
384 3 0.575 0.925558 0.5
385 3 0.6 0.876872 0.5
386 3 0.625 0.925558 0.5
387 3 0.65 0.876872 0.5
388 3 0.675 0.925558 0.5
389 3 0.7 0.876872 0.5
390 3 0.725 0.925558 0.5
391 3 0.75 0.876872 0.5
392 3 0.775 0.925558 0.5
393 1 0.8 0.876872 0.5
394 1 0.825 0.925558 0.5
395 1 0.85 0.876872 0.5
396 1 0.875 0.925558 0.5
397 1 0.9 0.876872 0.5
398 1 0.925 0.925558 0.5
399 1 0.95 0.876872 0.5
400 1 0.975 0.925558 0.5
411 3 0.5 0.974443 0.5
412 3 0.580907 0.9999 0.5
413 3 0.6 0.974443 0.5
414 3 0.65 0.974443 0.5
415 3 0.7 0.974443 0.5
416 3 0.75 0.974443 0.5
417 1 0.8 0.974443 0.5
418 1 0.85 0.974443 0.5
419 1 0.9 0.974443 0.5
420 1 0.95 0.974443 0.5
ITEM: TIMESTEP
150
ITEM: NUMBER OF ATOMS
420
ITEM: BOX BOUNDS pp ss pp
0.0000000000000000e+00 2.2653923264628304e+01
2.1918578738840608e-01 2.0212642916432078e+01
-2.8317404080785380e-01 2.8317404080785380e-01
ITEM: ATOMS id type xs ys zs
1 2 0 9.81461e-05 0.5
2 2 0.025 0.0482212 0.5
3 2 0.05 9.81461e-05 0.5
4 2 0.075 0.0482212 0.5
5 2 0.1 9.81461e-05 0.5
6 2 0.125 0.0482212 0.5
7 2 0.15 9.81461e-05 0.5
8 2 0.175 0.0482212 0.5
9 2 0.2 9.81461e-05 0.5
10 2 0.225 0.0482212 0.5
11 2 0.25 9.81461e-05 0.5
12 2 0.275 0.0482212 0.5
13 2 0.3 9.81461e-05 0.5
14 2 0.325 0.0482212 0.5
15 2 0.35 9.81461e-05 0.5
16 2 0.375 0.0482212 0.5
17 2 0.4 9.81461e-05 0.5
18 2 0.425 0.0482212 0.5
19 2 0.45 9.81461e-05 0.5
20 2 0.475 0.0482212 0.5
41 2 3.57546e-18 0.0961469 0.5
42 1 0.0250051 0.14408 0.5
43 2 0.05 0.0961469 0.5
44 1 0.0750061 0.14408 0.5
45 2 0.1 0.0961469 0.5
46 1 0.125007 0.144081 0.5
47 2 0.15 0.0961469 0.5
48 1 0.175007 0.144082 0.5
49 2 0.2 0.0961469 0.5
50 1 0.225007 0.144083 0.5
51 2 0.25 0.0961469 0.5
52 1 0.275006 0.144084 0.5
53 2 0.3 0.0961469 0.5
54 1 0.325005 0.144084 0.5
55 2 0.35 0.0961469 0.5
56 1 0.375004 0.144085 0.5
57 2 0.4 0.0961469 0.5
58 1 0.425003 0.144085 0.5
59 2 0.45 0.0961469 0.5
60 1 0.475001 0.144085 0.5
81 1 8.9111e-06 0.192012 0.5
82 1 0.0250151 0.239943 0.5
83 1 0.050011 0.192013 0.5
84 1 0.0750175 0.239945 0.5
85 1 0.100012 0.192014 0.5
86 1 0.125019 0.239948 0.5
87 1 0.150013 0.192016 0.5
88 1 0.17502 0.239952 0.5
89 1 0.200013 0.192018 0.5
90 1 0.225019 0.239956 0.5
91 1 0.250013 0.19202 0.5
92 1 0.275018 0.239959 0.5
93 1 0.300011 0.192022 0.5
94 1 0.325015 0.239962 0.5
95 1 0.350009 0.192023 0.5
96 1 0.375012 0.239964 0.5
97 1 0.400007 0.192024 0.5
98 1 0.425008 0.239965 0.5
99 1 0.450004 0.192025 0.5
100 1 0.475005 0.239965 0.5
411 3 0.499455 0.959666 0.5
122 1 0.0250266 0.335804 0.5
123 1 0.0500221 0.287876 0.5
124 1 0.0750297 0.335808 0.5
125 1 0.100024 0.28788 0.5
126 1 0.125032 0.335814 0.5
127 1 0.150026 0.287884 0.5
128 1 0.175032 0.335822 0.5
129 1 0.200026 0.28789 0.5
130 1 0.225032 0.335829 0.5
131 1 0.250025 0.287895 0.5
132 1 0.27503 0.335836 0.5
133 1 0.300022 0.2879 0.5
134 1 0.325027 0.335842 0.5
135 1 0.350019 0.287904 0.5
136 1 0.375023 0.335847 0.5
137 1 0.400015 0.287906 0.5
138 1 0.425017 0.335849 0.5
139 1 0.45001 0.287907 0.5
140 1 0.475011 0.33585 0.5
381 3 0.50015 0.863551 0.5
162 1 0.0250406 0.431661 0.5
163 1 0.0500349 0.383736 0.5
164 1 0.0750433 0.431669 0.5
165 1 0.100037 0.383743 0.5
166 1 0.125045 0.431678 0.5
167 1 0.150039 0.383751 0.5
168 1 0.175046 0.43169 0.5
169 1 0.200039 0.38376 0.5
170 1 0.225046 0.431702 0.5
171 1 0.250038 0.38377 0.5
172 1 0.275045 0.431714 0.5
173 1 0.300036 0.383779 0.5
174 1 0.325043 0.431725 0.5
175 1 0.350032 0.383787 0.5
176 1 0.375038 0.431734 0.5
177 1 0.400027 0.383792 0.5
178 1 0.425032 0.43174 0.5
179 1 0.45002 0.383795 0.5
180 1 0.475023 0.431741 0.5
201 1 4.73642e-05 0.479586 0.5
202 1 0.0250575 0.527516 0.5
203 1 0.0500498 0.479593 0.5
204 1 0.0750577 0.527527 0.5
205 1 0.100051 0.479603 0.5
206 1 0.125057 0.52754 0.5
207 1 0.150052 0.479616 0.5
208 1 0.175058 0.527555 0.5
209 1 0.200053 0.479629 0.5
210 1 0.225059 0.527571 0.5
211 1 0.250053 0.479644 0.5
212 1 0.275061 0.52759 0.5
213 1 0.300053 0.47966 0.5
214 1 0.325062 0.527609 0.5
215 1 0.350051 0.479674 0.5
216 1 0.37506 0.527626 0.5
217 1 0.400045 0.479685 0.5
218 1 0.425054 0.527639 0.5
219 1 0.450037 0.479691 0.5
220 1 0.475043 0.527644 0.5
241 1 6.7561e-05 0.575438 0.5
242 1 0.0250762 0.623372 0.5
243 1 0.0500657 0.57545 0.5
244 1 0.0750706 0.623386 0.5
245 1 0.100063 0.575463 0.5
246 1 0.125066 0.623401 0.5
247 1 0.150062 0.575478 0.5
248 1 0.175063 0.623417 0.5
249 1 0.200062 0.575494 0.5
250 1 0.225064 0.623435 0.5
251 1 0.250065 0.575514 0.5
252 1 0.275069 0.623458 0.5
253 1 0.300069 0.575536 0.5
254 1 0.325077 0.623486 0.5
255 1 0.350072 0.575561 0.5
256 1 0.375083 0.623517 0.5
257 1 0.400071 0.575583 0.5
258 1 0.425083 0.623546 0.5
259 1 0.450063 0.575598 0.5
260 1 0.475073 0.623564 0.5
301 1 0.500084 0.67154 0.5
282 1 0.0250936 0.719234 0.5
283 1 0.0500804 0.671309 0.5
284 1 0.0750792 0.71925 0.5
285 1 0.100071 0.671324 0.5
286 1 0.125067 0.719265 0.5
287 1 0.150064 0.671339 0.5
288 1 0.175058 0.719278 0.5
289 1 0.200061 0.671355 0.5
290 1 0.225055 0.719293 0.5
291 1 0.250064 0.671375 0.5
292 1 0.275059 0.719314 0.5
293 1 0.300072 0.671401 0.5
294 1 0.325071 0.719345 0.5
295 1 0.350085 0.671437 0.5
296 1 0.375091 0.719392 0.5
297 1 0.400097 0.671481 0.5
298 1 0.425112 0.719455 0.5
299 1 0.450098 0.671521 0.5
300 1 0.475114 0.719509 0.5
321 1 0.00011083 0.767159 0.5
322 1 0.0251052 0.815107 0.5
323 1 0.0500905 0.767177 0.5
324 1 0.0750809 0.815124 0.5
325 1 0.100072 0.767192 0.5
326 1 0.12506 0.815136 0.5
327 1 0.150057 0.767205 0.5
328 1 0.175042 0.815145 0.5
329 1 0.200046 0.767216 0.5
330 1 0.225028 0.815153 0.5
331 1 0.250042 0.767229 0.5
332 1 0.27502 0.815165 0.5
333 1 0.300046 0.767251 0.5
334 1 0.325022 0.815186 0.5
335 1 0.350063 0.767288 0.5
336 1 0.37504 0.81523 0.5
337 1 0.400092 0.767352 0.5
338 1 0.425081 0.815316 0.5
339 1 0.450128 0.767447 0.5
340 1 0.475144 0.815469 0.5
361 1 0.000122505 0.863039 0.5
362 1 0.0251052 0.910995 0.5
363 1 0.0500924 0.863057 0.5
364 1 0.0750745 0.91101 0.5
365 1 0.100066 0.86307 0.5
366 1 0.125047 0.91102 0.5
367 1 0.150042 0.863079 0.5
368 1 0.17502 0.911026 0.5
369 1 0.20002 0.863085 0.5
370 1 0.224993 0.91103 0.5
371 1 0.250001 0.863091 0.5
372 1 0.274964 0.911034 0.5
373 1 0.299985 0.8631 0.5
374 1 0.324932 0.911044 0.5
375 1 0.349977 0.863122 0.5
376 1 0.374898 0.911069 0.5
377 1 0.399987 0.863173 0.5
378 1 0.42487 0.911128 0.5
379 3 0.450034 0.863288 0.5
380 3 0.474881 0.911285 0.5
401 1 0.00011726 0.959136 0.5
402 1 0.0500835 0.959151 0.5
403 1 0.100054 0.959163 0.5
404 1 0.150026 0.95917 0.5
405 1 0.199996 0.959175 0.5
406 1 0.249961 0.95918 0.5
407 1 0.299916 0.959188 0.5
408 1 0.349853 0.959205 0.5
409 1 0.39976 0.959245 0.5
410 3 0.449615 0.959338 0.5
101 1 0.500001 0.192024 0.5
221 1 0.500027 0.47969 0.5
261 1 0.500049 0.575602 0.5
341 1 0.500132 0.76752 0.5
21 2 0.5 9.81461e-05 0.5
22 2 0.525 0.0482212 0.5
23 2 0.55 9.81461e-05 0.5
24 2 0.575 0.0482212 0.5
25 2 0.6 9.81461e-05 0.5
26 2 0.625 0.0482212 0.5
27 2 0.65 9.81461e-05 0.5
28 2 0.675 0.0482212 0.5
29 2 0.7 9.81461e-05 0.5
30 2 0.725 0.0482212 0.5
31 2 0.75 9.81461e-05 0.5
32 2 0.775 0.0482212 0.5
33 2 0.8 9.81461e-05 0.5
34 2 0.825 0.0482212 0.5
35 2 0.85 9.81461e-05 0.5
36 2 0.875 0.0482212 0.5
37 2 0.9 9.81461e-05 0.5
38 2 0.925 0.0482212 0.5
39 2 0.95 9.81461e-05 0.5
40 2 0.975 0.0482212 0.5
61 2 0.5 0.0961469 0.5
62 1 0.525 0.144085 0.5
63 2 0.55 0.0961469 0.5
64 1 0.574999 0.144085 0.5
65 2 0.6 0.0961469 0.5
66 1 0.624998 0.144084 0.5
67 2 0.65 0.0961469 0.5
68 1 0.674998 0.144083 0.5
69 2 0.7 0.0961469 0.5
70 1 0.724998 0.144083 0.5
71 2 0.75 0.0961469 0.5
72 1 0.774999 0.144082 0.5
73 2 0.8 0.0961469 0.5
74 1 0.825 0.144081 0.5
75 2 0.85 0.0961469 0.5
76 1 0.875001 0.14408 0.5
77 2 0.9 0.0961469 0.5
78 1 0.925002 0.14408 0.5
79 2 0.95 0.0961469 0.5
80 1 0.975004 0.14408 0.5
417 1 0.800372 0.959056 0.5
102 1 0.525001 0.239964 0.5
103 1 0.549999 0.192023 0.5
104 1 0.574999 0.239962 0.5
105 1 0.599998 0.192022 0.5
106 1 0.624997 0.23996 0.5
107 1 0.649997 0.19202 0.5
108 1 0.674996 0.239957 0.5
109 1 0.699997 0.192019 0.5
110 1 0.724997 0.239953 0.5
111 1 0.749998 0.192017 0.5
112 1 0.774999 0.23995 0.5
113 1 0.799999 0.192015 0.5
114 1 0.825001 0.239947 0.5
115 1 0.850001 0.192013 0.5
116 1 0.875005 0.239944 0.5
117 1 0.900004 0.192012 0.5
118 1 0.925008 0.239943 0.5
119 1 0.950006 0.192012 0.5
120 1 0.975012 0.239943 0.5
141 1 0.500005 0.287906 0.5
142 1 0.525006 0.335847 0.5
143 1 0.550001 0.287904 0.5
144 1 0.575001 0.335843 0.5
145 1 0.599998 0.2879 0.5
146 1 0.624998 0.335838 0.5
147 1 0.649997 0.287896 0.5
148 1 0.674997 0.335831 0.5
149 1 0.699997 0.287891 0.5
150 1 0.724998 0.335823 0.5
151 1 0.749998 0.287885 0.5
152 1 0.775001 0.335816 0.5
153 1 0.800001 0.287881 0.5
154 1 0.825006 0.33581 0.5
155 1 0.850005 0.287877 0.5
156 1 0.875012 0.335805 0.5
157 1 0.90001 0.287874 0.5
158 1 0.925017 0.335802 0.5
159 1 0.950015 0.287873 0.5
160 1 0.975022 0.335802 0.5
181 1 0.500013 0.383793 0.5
182 1 0.525015 0.431738 0.5
183 1 0.550007 0.383789 0.5
184 1 0.575007 0.43173 0.5
185 1 0.600001 0.383782 0.5
186 1 0.625002 0.431719 0.5
187 1 0.649999 0.383773 0.5
188 1 0.675001 0.431706 0.5
189 1 0.699999 0.383763 0.5
190 1 0.725003 0.431692 0.5
191 1 0.750002 0.383753 0.5
192 1 0.775008 0.431678 0.5
193 1 0.800007 0.383743 0.5
194 1 0.825015 0.431667 0.5
195 1 0.850013 0.383736 0.5
196 1 0.875023 0.43166 0.5
197 1 0.90002 0.383731 0.5
198 1 0.925031 0.431656 0.5
199 1 0.950026 0.38373 0.5
200 1 0.975037 0.431657 0.5
416 3 0.750497 0.959051 0.5
222 1 0.525031 0.52764 0.5
223 1 0.550017 0.479684 0.5
224 1 0.575019 0.527628 0.5
225 1 0.600009 0.479671 0.5
226 1 0.625011 0.527608 0.5
227 1 0.650004 0.479655 0.5
228 1 0.675009 0.527584 0.5
229 1 0.700005 0.479636 0.5
230 1 0.725013 0.527558 0.5
231 1 0.75001 0.479617 0.5
232 1 0.775023 0.527534 0.5
233 1 0.800019 0.4796 0.5
234 1 0.825034 0.527517 0.5
235 1 0.850028 0.479588 0.5
236 1 0.875045 0.527507 0.5
237 1 0.900037 0.479582 0.5
238 1 0.925052 0.527505 0.5
239 1 0.950043 0.479582 0.5
240 1 0.975056 0.527509 0.5
415 3 0.700681 0.95907 0.5
262 1 0.525056 0.623564 0.5
263 1 0.550034 0.575593 0.5
264 1 0.575037 0.623545 0.5
265 1 0.600021 0.575572 0.5
266 1 0.625026 0.623509 0.5
267 1 0.650015 0.575542 0.5
268 1 0.675026 0.623463 0.5
269 1 0.700019 0.575507 0.5
270 1 0.725038 0.623415 0.5
271 1 0.750029 0.575473 0.5
272 1 0.775056 0.623377 0.5
273 1 0.800043 0.575447 0.5
274 1 0.825071 0.623356 0.5
275 1 0.850055 0.575432 0.5
276 1 0.87508 0.623348 0.5
277 1 0.900064 0.575427 0.5
278 1 0.925083 0.623351 0.5
279 1 0.950067 0.57543 0.5
280 1 0.975081 0.62336 0.5
420 1 0.950159 0.959116 0.5
302 1 0.525094 0.719526 0.5
303 1 0.550061 0.671531 0.5
304 1 0.575066 0.719496 0.5
305 1 0.600042 0.671493 0.5
306 1 0.625055 0.719423 0.5
307 1 0.650038 0.671433 0.5
308 1 0.67507 0.719329 0.5
309 1 0.700051 0.671367 0.5
310 1 0.725102 0.719246 0.5
311 1 0.750075 0.671311 0.5
312 1 0.775125 0.719201 0.5
313 1 0.800093 0.671279 0.5
314 1 0.825133 0.719185 0.5
315 1 0.850102 0.671268 0.5
316 1 0.875131 0.719188 0.5
317 1 0.900103 0.67127 0.5
318 1 0.925122 0.7192 0.5
319 1 0.950098 0.67128 0.5
320 1 0.975108 0.719217 0.5
414 3 0.650958 0.959161 0.5
342 1 0.525149 0.815565 0.5
343 1 0.550104 0.767524 0.5
344 1 0.575123 0.815514 0.5
345 1 0.600081 0.767445 0.5
346 1 0.625135 0.815336 0.5
347 1 0.650096 0.767313 0.5
348 1 0.67522 0.81512 0.5
349 1 0.700146 0.767183 0.5
350 1 0.725245 0.815043 0.5
351 1 0.750172 0.767122 0.5
352 1 0.77524 0.81502 0.5
353 1 0.800177 0.767102 0.5
354 1 0.825219 0.815024 0.5
355 1 0.850168 0.767105 0.5
356 1 0.875191 0.815042 0.5
357 1 0.900152 0.76712 0.5
358 1 0.925161 0.815064 0.5
359 1 0.950132 0.767139 0.5
360 1 0.975132 0.815087 0.5
419 1 0.900211 0.959095 0.5
382 3 0.525147 0.91181 0.5
383 3 0.550182 0.863634 0.5
384 3 0.575319 0.911794 0.5
385 3 0.600196 0.863438 0.5
386 3 0.625672 0.910973 0.5
387 3 0.650358 0.86305 0.5
388 3 0.675571 0.910915 0.5
389 3 0.700363 0.862966 0.5
390 3 0.725468 0.910882 0.5
391 3 0.75033 0.862941 0.5
392 3 0.775375 0.910885 0.5
393 1 0.800286 0.862947 0.5
394 1 0.825299 0.910903 0.5
395 1 0.850239 0.862967 0.5
396 1 0.875236 0.910927 0.5
397 1 0.900196 0.862991 0.5
398 1 0.925184 0.910952 0.5
399 1 0.950157 0.863016 0.5
400 1 0.975141 0.910975 0.5
418 1 0.85028 0.959074 0.5
412 3 0.571565 1.00334 0.5
413 3 0.601473 0.959157 0.5
121 1 1.00002 0.287874 0.5
161 1 1.00003 0.383732 0.5
281 1 1.00009 0.671294 0.5
ITEM: TIMESTEP
182
ITEM: NUMBER OF ATOMS
420
ITEM: BOX BOUNDS pp ss pp
0.0000000000000000e+00 2.2653923264628304e+01
2.1918578738840608e-01 2.0281362536882025e+01
-2.8317404080785380e-01 2.8317404080785380e-01
ITEM: ATOMS id type xs ys zs
1 2 0 9.78099e-05 0.5
2 2 0.025 0.048056 0.5
3 2 0.05 9.78099e-05 0.5
4 2 0.075 0.048056 0.5
5 2 0.1 9.78099e-05 0.5
6 2 0.125 0.048056 0.5
7 2 0.15 9.78099e-05 0.5
8 2 0.175 0.048056 0.5
9 2 0.2 9.78099e-05 0.5
10 2 0.225 0.048056 0.5
11 2 0.25 9.78099e-05 0.5
12 2 0.275 0.048056 0.5
13 2 0.3 9.78099e-05 0.5
14 2 0.325 0.048056 0.5
15 2 0.35 9.78099e-05 0.5
16 2 0.375 0.048056 0.5
17 2 0.4 9.78099e-05 0.5
18 2 0.425 0.048056 0.5
19 2 0.45 9.78099e-05 0.5
20 2 0.475 0.048056 0.5
41 2 3.57546e-18 0.0958175 0.5
42 1 0.0250058 0.143586 0.5
43 2 0.05 0.0958175 0.5
44 1 0.0750073 0.143587 0.5
45 2 0.1 0.0958175 0.5
46 1 0.125008 0.143587 0.5
47 2 0.15 0.0958175 0.5
48 1 0.175009 0.143588 0.5
49 2 0.2 0.0958175 0.5
50 1 0.225009 0.143589 0.5
51 2 0.25 0.0958175 0.5
52 1 0.275009 0.14359 0.5
53 2 0.3 0.0958175 0.5
54 1 0.325008 0.143591 0.5
55 2 0.35 0.0958175 0.5
56 1 0.375006 0.143592 0.5
57 2 0.4 0.0958175 0.5
58 1 0.425005 0.143592 0.5
59 2 0.45 0.0958175 0.5
60 1 0.475003 0.143592 0.5
81 1 1.01138e-05 0.191354 0.5
82 1 0.0250175 0.23912 0.5
83 1 0.0500129 0.191355 0.5
84 1 0.075021 0.239122 0.5
85 1 0.100015 0.191356 0.5
86 1 0.125024 0.239125 0.5
87 1 0.150017 0.191358 0.5
88 1 0.175025 0.239129 0.5
89 1 0.200017 0.19136 0.5
90 1 0.225026 0.239133 0.5
91 1 0.250017 0.191362 0.5
92 1 0.275025 0.239137 0.5
93 1 0.300016 0.191365 0.5
94 1 0.325022 0.239141 0.5
95 1 0.350014 0.191366 0.5
96 1 0.375019 0.239144 0.5
97 1 0.400011 0.191367 0.5
98 1 0.425015 0.239145 0.5
99 1 0.450008 0.191368 0.5
100 1 0.47501 0.239146 0.5
411 3 0.499449 0.956409 0.5
122 1 0.0250304 0.33465 0.5
123 1 0.050026 0.286888 0.5
124 1 0.0750353 0.334655 0.5
125 1 0.10003 0.286891 0.5
126 1 0.125039 0.334661 0.5
127 1 0.150032 0.286896 0.5
128 1 0.175041 0.334669 0.5
129 1 0.200034 0.286902 0.5
130 1 0.225042 0.334677 0.5
131 1 0.250033 0.286908 0.5
132 1 0.275041 0.334686 0.5
133 1 0.300031 0.286914 0.5
134 1 0.325038 0.334693 0.5
135 1 0.350028 0.286919 0.5
136 1 0.375034 0.334699 0.5
137 1 0.400023 0.286922 0.5
138 1 0.425027 0.334703 0.5
139 1 0.450018 0.286924 0.5
140 1 0.47502 0.334705 0.5
410 3 0.449607 0.956074 0.5
162 1 0.0250458 0.430177 0.5
163 1 0.0500405 0.382417 0.5
164 1 0.0750506 0.430184 0.5
165 1 0.100045 0.382424 0.5
166 1 0.125054 0.430194 0.5
167 1 0.150048 0.382432 0.5
168 1 0.175057 0.430206 0.5
169 1 0.20005 0.382443 0.5
170 1 0.225059 0.43022 0.5
171 1 0.25005 0.382454 0.5
172 1 0.275059 0.430234 0.5
173 1 0.300049 0.382465 0.5
174 1 0.325057 0.430248 0.5
175 1 0.350045 0.382475 0.5
176 1 0.375052 0.43026 0.5
177 1 0.400039 0.382482 0.5
178 1 0.425045 0.430267 0.5
179 1 0.450031 0.382486 0.5
180 1 0.475035 0.430271 0.5
201 1 5.20533e-05 0.477936 0.5
202 1 0.0250638 0.5257 0.5
203 1 0.0500566 0.477943 0.5
204 1 0.0750661 0.52571 0.5
205 1 0.10006 0.477953 0.5
206 1 0.125068 0.525723 0.5
207 1 0.150063 0.477966 0.5
208 1 0.17507 0.52574 0.5
209 1 0.200066 0.477981 0.5
210 1 0.225073 0.525759 0.5
211 1 0.250068 0.477998 0.5
212 1 0.275076 0.525781 0.5
213 1 0.300068 0.478017 0.5
214 1 0.325077 0.525803 0.5
215 1 0.350066 0.478034 0.5
216 1 0.375075 0.525824 0.5
217 1 0.40006 0.478048 0.5
218 1 0.425068 0.52584 0.5
219 1 0.45005 0.478057 0.5
220 1 0.475056 0.525849 0.5
241 1 7.32261e-05 0.573457 0.5
242 1 0.0250834 0.621224 0.5
243 1 0.0500735 0.573467 0.5
244 1 0.0750797 0.621237 0.5
245 1 0.100073 0.57348 0.5
246 1 0.125077 0.621252 0.5
247 1 0.150074 0.573496 0.5
248 1 0.175076 0.62127 0.5
249 1 0.200076 0.573515 0.5
250 1 0.225078 0.621292 0.5
251 1 0.25008 0.573538 0.5
252 1 0.275084 0.621319 0.5
253 1 0.300084 0.573564 0.5
254 1 0.325092 0.621352 0.5
255 1 0.350087 0.573594 0.5
256 1 0.375098 0.621389 0.5
257 1 0.400086 0.573621 0.5
258 1 0.425098 0.621423 0.5
259 1 0.450077 0.57364 0.5
260 1 0.475086 0.621445 0.5
409 1 0.399751 0.955973 0.5
282 1 0.0251018 0.716754 0.5
283 1 0.0500889 0.668995 0.5
284 1 0.0750884 0.716769 0.5
285 1 0.100081 0.669009 0.5
286 1 0.125077 0.716784 0.5
287 1 0.150076 0.669026 0.5
288 1 0.175069 0.7168 0.5
289 1 0.200074 0.669045 0.5
290 1 0.225066 0.71682 0.5
291 1 0.250077 0.669068 0.5
292 1 0.275071 0.716846 0.5
293 1 0.300086 0.6691 0.5
294 1 0.325083 0.716883 0.5
295 1 0.350099 0.669142 0.5
296 1 0.375103 0.716937 0.5
297 1 0.40011 0.669193 0.5
298 1 0.425124 0.717006 0.5
299 1 0.450111 0.669237 0.5
300 1 0.475125 0.717065 0.5
321 1 0.000119342 0.764515 0.5
322 1 0.0251147 0.812297 0.5
323 1 0.0500995 0.764531 0.5
324 1 0.07509 0.812312 0.5
325 1 0.100082 0.764546 0.5
326 1 0.125068 0.812325 0.5
327 1 0.150067 0.76456 0.5
328 1 0.175049 0.812337 0.5
329 1 0.200056 0.764575 0.5
330 1 0.225035 0.81235 0.5
331 1 0.250052 0.764593 0.5
332 1 0.275027 0.812368 0.5
333 1 0.300056 0.764621 0.5
334 1 0.325028 0.812396 0.5
335 1 0.350072 0.764665 0.5
336 1 0.375046 0.812448 0.5
337 1 0.400102 0.764737 0.5
338 1 0.425087 0.812541 0.5
339 1 0.450137 0.764839 0.5
340 1 0.47515 0.812701 0.5
361 1 0.00013351 0.860064 0.5
362 1 0.0251167 0.907855 0.5
363 1 0.0501021 0.86008 0.5
364 1 0.0750833 0.907869 0.5
365 1 0.100074 0.860094 0.5
366 1 0.125053 0.90788 0.5
367 1 0.150048 0.860105 0.5
368 1 0.175024 0.907889 0.5
369 1 0.200025 0.860115 0.5
370 1 0.224994 0.907898 0.5
371 1 0.250004 0.860126 0.5
372 1 0.274963 0.907908 0.5
373 1 0.299987 0.860142 0.5
374 1 0.324929 0.907926 0.5
375 1 0.349979 0.860172 0.5
376 1 0.374894 0.907958 0.5
377 1 0.399989 0.86023 0.5
378 1 0.424868 0.908025 0.5
379 3 0.450037 0.860353 0.5
380 3 0.474881 0.90819 0.5
401 1 0.000131783 0.955833 0.5
402 1 0.0500941 0.955846 0.5
403 1 0.100061 0.955858 0.5
404 1 0.150029 0.955868 0.5
405 1 0.199995 0.955877 0.5
406 1 0.249957 0.955887 0.5
407 1 0.299909 0.955901 0.5
408 1 0.349844 0.955926 0.5
121 1 2.12773e-05 0.286886 0.5
281 1 9.69987e-05 0.668981 0.5
161 1 3.48667e-05 0.382414 0.5
21 2 0.5 9.78099e-05 0.5
22 2 0.525 0.048056 0.5
23 2 0.55 9.78099e-05 0.5
24 2 0.575 0.048056 0.5
25 2 0.6 9.78099e-05 0.5
26 2 0.625 0.048056 0.5
27 2 0.65 9.78099e-05 0.5
28 2 0.675 0.048056 0.5
29 2 0.7 9.78099e-05 0.5
30 2 0.725 0.048056 0.5
31 2 0.75 9.78099e-05 0.5
32 2 0.775 0.048056 0.5
33 2 0.8 9.78099e-05 0.5
34 2 0.825 0.048056 0.5
35 2 0.85 9.78099e-05 0.5
36 2 0.875 0.048056 0.5
37 2 0.9 9.78099e-05 0.5
38 2 0.925 0.048056 0.5
39 2 0.95 9.78099e-05 0.5
40 2 0.975 0.048056 0.5
61 2 0.5 0.0958175 0.5
62 1 0.525002 0.143592 0.5
63 2 0.55 0.0958175 0.5
64 1 0.575 0.143592 0.5
65 2 0.6 0.0958175 0.5
66 1 0.624999 0.143592 0.5
67 2 0.65 0.0958175 0.5
68 1 0.674998 0.143591 0.5
69 2 0.7 0.0958175 0.5
70 1 0.724998 0.14359 0.5
71 2 0.75 0.0958175 0.5
72 1 0.774999 0.143589 0.5
73 2 0.8 0.0958175 0.5
74 1 0.825 0.143588 0.5
75 2 0.85 0.0958175 0.5
76 1 0.875001 0.143587 0.5
77 2 0.9 0.0958175 0.5
78 1 0.925002 0.143586 0.5
79 2 0.95 0.0958175 0.5
80 1 0.975004 0.143586 0.5
417 1 0.800394 0.955779 0.5
102 1 0.525006 0.239145 0.5
103 1 0.550002 0.191367 0.5
104 1 0.575002 0.239144 0.5
105 1 0.6 0.191366 0.5
106 1 0.624999 0.239141 0.5
107 1 0.649998 0.191364 0.5
108 1 0.674998 0.239138 0.5
109 1 0.699997 0.191362 0.5
110 1 0.724997 0.239134 0.5
111 1 0.749998 0.19136 0.5
112 1 0.774999 0.23913 0.5
113 1 0.799999 0.191358 0.5
114 1 0.825001 0.239126 0.5
115 1 0.850001 0.191356 0.5
116 1 0.875005 0.239123 0.5
117 1 0.900004 0.191355 0.5
118 1 0.925009 0.239121 0.5
119 1 0.950007 0.191354 0.5
120 1 0.975013 0.23912 0.5
141 1 0.500012 0.286923 0.5
142 1 0.525013 0.334703 0.5
143 1 0.550006 0.286921 0.5
144 1 0.575007 0.334699 0.5
145 1 0.600002 0.286918 0.5
146 1 0.625002 0.334694 0.5
147 1 0.649999 0.286913 0.5
148 1 0.674999 0.334686 0.5
149 1 0.699998 0.286907 0.5
150 1 0.724999 0.334678 0.5