ITEM: TIMESTEP
0
ITEM: NUMBER OF ATOMS
420
ITEM: BOX BOUNDS pp ss pp
0.0000000000000000e+00 2.2653923264628304e+01
2.1918578738840608e-01 1.9600100895984593e+01
-2.8317404080785380e-01 2.8317404080785380e-01
ITEM: ATOMS id type xs ys zs
1 2 0 0.000101248 0.5
2 2 0.025 0.0497452 0.5
3 2 0.05 0.000101248 0.5
4 2 0.075 0.0497452 0.5
5 2 0.1 0.000101248 0.5
6 2 0.125 0.0497452 0.5
7 2 0.15 0.000101248 0.5
8 2 0.175 0.0497452 0.5
9 2 0.2 0.000101248 0.5
10 2 0.225 0.0497452 0.5
11 2 0.25 0.000101248 0.5
12 2 0.275 0.0497452 0.5
13 2 0.3 0.000101248 0.5
14 2 0.325 0.0497452 0.5
15 2 0.35 0.000101248 0.5
16 2 0.375 0.0497452 0.5
17 2 0.4 0.000101248 0.5
18 2 0.425 0.0497452 0.5
19 2 0.45 0.000101248 0.5
20 2 0.475 0.0497452 0.5
41 2 3.57546e-18 0.0991856 0.5
42 1 0.025 0.148618 0.5
43 2 0.05 0.0991856 0.5
44 1 0.075 0.148618 0.5
45 2 0.1 0.0991856 0.5
46 1 0.125 0.148618 0.5
47 2 0.15 0.0991856 0.5
48 1 0.175 0.148618 0.5
49 2 0.2 0.0991856 0.5
50 1 0.225 0.148618 0.5
51 2 0.25 0.0991856 0.5
52 1 0.275 0.148618 0.5
53 2 0.3 0.0991856 0.5
54 1 0.325 0.148618 0.5
55 2 0.35 0.0991856 0.5
56 1 0.375 0.148618 0.5
57 2 0.4 0.0991856 0.5
58 1 0.425 0.148618 0.5
59 2 0.45 0.0991856 0.5
60 1 0.475 0.148618 0.5
81 1 2.74429e-20 0.198072 0.5
82 1 0.025 0.247525 0.5
83 1 0.05 0.198072 0.5
84 1 0.075 0.247525 0.5
85 1 0.1 0.198072 0.5
86 1 0.125 0.247525 0.5
87 1 0.15 0.198072 0.5
88 1 0.175 0.247525 0.5
89 1 0.2 0.198072 0.5
90 1 0.225 0.247525 0.5
91 1 0.25 0.198072 0.5
92 1 0.275 0.247525 0.5
93 1 0.3 0.198072 0.5
94 1 0.325 0.247525 0.5
95 1 0.35 0.198072 0.5
96 1 0.375 0.247525 0.5
97 1 0.4 0.198072 0.5
98 1 0.425 0.247525 0.5
99 1 0.45 0.198072 0.5
100 1 0.475 0.247525 0.5
121 1 0 0.296986 0.5
122 1 0.025 0.34645 0.5
123 1 0.05 0.296986 0.5
124 1 0.075 0.34645 0.5
125 1 0.1 0.296986 0.5
126 1 0.125 0.34645 0.5
127 1 0.15 0.296986 0.5
128 1 0.175 0.34645 0.5
129 1 0.2 0.296986 0.5
130 1 0.225 0.34645 0.5
131 1 0.25 0.296986 0.5
132 1 0.275 0.34645 0.5
133 1 0.3 0.296986 0.5
134 1 0.325 0.34645 0.5
135 1 0.35 0.296986 0.5
136 1 0.375 0.34645 0.5
137 1 0.4 0.296986 0.5
138 1 0.425 0.34645 0.5
139 1 0.45 0.296986 0.5
140 1 0.475 0.34645 0.5
161 1 0 0.395908 0.5
162 1 0.025 0.445368 0.5
163 1 0.05 0.395908 0.5
164 1 0.075 0.445368 0.5
165 1 0.1 0.395908 0.5
166 1 0.125 0.445368 0.5
167 1 0.15 0.395908 0.5
168 1 0.175 0.445368 0.5
169 1 0.2 0.395908 0.5
170 1 0.225 0.445368 0.5
171 1 0.25 0.395908 0.5
172 1 0.275 0.445368 0.5
173 1 0.3 0.395908 0.5
174 1 0.325 0.445368 0.5
175 1 0.35 0.395908 0.5
176 1 0.375 0.445368 0.5
177 1 0.4 0.395908 0.5
178 1 0.425 0.445368 0.5
179 1 0.45 0.395908 0.5
180 1 0.475 0.445368 0.5
201 1 0 0.49483 0.5
202 1 0.025 0.544291 0.5
203 1 0.05 0.49483 0.5
204 1 0.075 0.544291 0.5
205 1 0.1 0.49483 0.5
206 1 0.125 0.544291 0.5
207 1 0.15 0.49483 0.5
208 1 0.175 0.544291 0.5
209 1 0.2 0.49483 0.5
210 1 0.225 0.544291 0.5
211 1 0.25 0.49483 0.5
212 1 0.275 0.544291 0.5
213 1 0.3 0.49483 0.5
214 1 0.325 0.544291 0.5
215 1 0.35 0.49483 0.5
216 1 0.375 0.544291 0.5
217 1 0.4 0.49483 0.5
218 1 0.425 0.544291 0.5
219 1 0.45 0.49483 0.5
220 1 0.475 0.544291 0.5
241 1 0 0.593751 0.5
242 1 0.025 0.643209 0.5
243 1 0.05 0.593751 0.5
244 1 0.075 0.643209 0.5
245 1 0.1 0.593751 0.5
246 1 0.125 0.643209 0.5
247 1 0.15 0.593751 0.5
248 1 0.175 0.643209 0.5
249 1 0.2 0.593751 0.5
250 1 0.225 0.643209 0.5
251 1 0.25 0.593751 0.5
252 1 0.275 0.643209 0.5
253 1 0.3 0.593751 0.5
254 1 0.325 0.643209 0.5
255 1 0.35 0.593751 0.5
256 1 0.375 0.643209 0.5
257 1 0.4 0.593751 0.5
258 1 0.425 0.643209 0.5
259 1 0.45 0.593751 0.5
260 1 0.475 0.643209 0.5
281 1 2.18851e-18 0.692674 0.5
282 1 0.025 0.742134 0.5
283 1 0.05 0.692674 0.5
284 1 0.075 0.742134 0.5
285 1 0.1 0.692674 0.5
286 1 0.125 0.742134 0.5
287 1 0.15 0.692674 0.5
288 1 0.175 0.742134 0.5
289 1 0.2 0.692674 0.5
290 1 0.225 0.742134 0.5
291 1 0.25 0.692674 0.5
292 1 0.275 0.742134 0.5
293 1 0.3 0.692674 0.5
294 1 0.325 0.742134 0.5
295 1 0.35 0.692674 0.5
296 1 0.375 0.742134 0.5
297 1 0.4 0.692674 0.5
298 1 0.425 0.742134 0.5
299 1 0.45 0.692674 0.5
300 1 0.475 0.742134 0.5
321 1 0 0.791587 0.5
322 1 0.025 0.841042 0.5
323 1 0.05 0.791587 0.5
324 1 0.075 0.841042 0.5
325 1 0.1 0.791587 0.5
326 1 0.125 0.841042 0.5
327 1 0.15 0.791587 0.5
328 1 0.175 0.841042 0.5
329 1 0.2 0.791587 0.5
330 1 0.225 0.841042 0.5
331 1 0.25 0.791587 0.5
332 1 0.275 0.841042 0.5
333 1 0.3 0.791587 0.5
334 1 0.325 0.841042 0.5
335 1 0.35 0.791587 0.5
336 1 0.375 0.841042 0.5
337 1 0.4 0.791587 0.5
338 1 0.425 0.841042 0.5
339 1 0.45 0.791587 0.5
340 1 0.475 0.841042 0.5
361 1 5.74281e-19 0.890474 0.5
362 1 0.025 0.939914 0.5
363 1 0.05 0.890474 0.5
364 1 0.075 0.939914 0.5
365 1 0.1 0.890474 0.5
366 1 0.125 0.939914 0.5
367 1 0.15 0.890474 0.5
368 1 0.175 0.939914 0.5
369 1 0.2 0.890474 0.5
370 1 0.225 0.939914 0.5
371 1 0.25 0.890474 0.5
372 1 0.275 0.939914 0.5
373 1 0.3 0.890474 0.5
374 1 0.325 0.939914 0.5
375 1 0.35 0.890474 0.5
376 1 0.375 0.939914 0.5
377 1 0.4 0.890474 0.5
378 1 0.425 0.939914 0.5
379 3 0.45 0.890474 0.5
380 3 0.475 0.939914 0.5
401 1 3.60804e-19 0.989558 0.5
402 1 0.05 0.989558 0.5
403 1 0.1 0.989558 0.5
404 1 0.15 0.989558 0.5
405 1 0.2 0.989558 0.5
406 1 0.25 0.989558 0.5
407 1 0.3 0.989558 0.5
408 1 0.35 0.989558 0.5
409 1 0.4 0.989558 0.5
410 3 0.45 0.989558 0.5
21 2 0.5 0.000101248 0.5
22 2 0.525 0.0497452 0.5
23 2 0.55 0.000101248 0.5
24 2 0.575 0.0497452 0.5
25 2 0.6 0.000101248 0.5
26 2 0.625 0.0497452 0.5
27 2 0.65 0.000101248 0.5
28 2 0.675 0.0497452 0.5
29 2 0.7 0.000101248 0.5
30 2 0.725 0.0497452 0.5
31 2 0.75 0.000101248 0.5
32 2 0.775 0.0497452 0.5
33 2 0.8 0.000101248 0.5
34 2 0.825 0.0497452 0.5
35 2 0.85 0.000101248 0.5
36 2 0.875 0.0497452 0.5
37 2 0.9 0.000101248 0.5
38 2 0.925 0.0497452 0.5
39 2 0.95 0.000101248 0.5
40 2 0.975 0.0497452 0.5
61 2 0.5 0.0991856 0.5
62 1 0.525 0.148618 0.5
63 2 0.55 0.0991856 0.5
64 1 0.575 0.148618 0.5
65 2 0.6 0.0991856 0.5
66 1 0.625 0.148618 0.5
67 2 0.65 0.0991856 0.5
68 1 0.675 0.148618 0.5
69 2 0.7 0.0991856 0.5
70 1 0.725 0.148618 0.5
71 2 0.75 0.0991856 0.5
72 1 0.775 0.148618 0.5
73 2 0.8 0.0991856 0.5
74 1 0.825 0.148618 0.5
75 2 0.85 0.0991856 0.5
76 1 0.875 0.148618 0.5
77 2 0.9 0.0991856 0.5
78 1 0.925 0.148618 0.5
79 2 0.95 0.0991856 0.5
80 1 0.975 0.148618 0.5
101 1 0.5 0.198072 0.5
102 1 0.525 0.247525 0.5
103 1 0.55 0.198072 0.5
104 1 0.575 0.247525 0.5
105 1 0.6 0.198072 0.5
106 1 0.625 0.247525 0.5
107 1 0.65 0.198072 0.5
108 1 0.675 0.247525 0.5
109 1 0.7 0.198072 0.5
110 1 0.725 0.247525 0.5
111 1 0.75 0.198072 0.5
112 1 0.775 0.247525 0.5
113 1 0.8 0.198072 0.5
114 1 0.825 0.247525 0.5
115 1 0.85 0.198072 0.5
116 1 0.875 0.247525 0.5
117 1 0.9 0.198072 0.5
118 1 0.925 0.247525 0.5
119 1 0.95 0.198072 0.5
120 1 0.975 0.247525 0.5
141 1 0.5 0.296986 0.5
142 1 0.525 0.34645 0.5
143 1 0.55 0.296986 0.5
144 1 0.575 0.34645 0.5
145 1 0.6 0.296986 0.5
146 1 0.625 0.34645 0.5
147 1 0.65 0.296986 0.5
148 1 0.675 0.34645 0.5
149 1 0.7 0.296986 0.5
150 1 0.725 0.34645 0.5
151 1 0.75 0.296986 0.5
152 1 0.775 0.34645 0.5
153 1 0.8 0.296986 0.5
154 1 0.825 0.34645 0.5
155 1 0.85 0.296986 0.5
156 1 0.875 0.34645 0.5
157 1 0.9 0.296986 0.5
158 1 0.925 0.34645 0.5
159 1 0.95 0.296986 0.5
160 1 0.975 0.34645 0.5
181 1 0.5 0.395908 0.5
182 1 0.525 0.445368 0.5
183 1 0.55 0.395908 0.5
184 1 0.575 0.445368 0.5
185 1 0.6 0.395908 0.5
186 1 0.625 0.445368 0.5
187 1 0.65 0.395908 0.5
188 1 0.675 0.445368 0.5
189 1 0.7 0.395908 0.5
190 1 0.725 0.445368 0.5
191 1 0.75 0.395908 0.5
192 1 0.775 0.445368 0.5
193 1 0.8 0.395908 0.5
194 1 0.825 0.445368 0.5
195 1 0.85 0.395908 0.5
196 1 0.875 0.445368 0.5
197 1 0.9 0.395908 0.5
198 1 0.925 0.445368 0.5
199 1 0.95 0.395908 0.5
200 1 0.975 0.445368 0.5
221 1 0.5 0.49483 0.5
222 1 0.525 0.544291 0.5
223 1 0.55 0.49483 0.5
224 1 0.575 0.544291 0.5
225 1 0.6 0.49483 0.5
226 1 0.625 0.544291 0.5
227 1 0.65 0.49483 0.5
228 1 0.675 0.544291 0.5
229 1 0.7 0.49483 0.5
230 1 0.725 0.544291 0.5
231 1 0.75 0.49483 0.5
232 1 0.775 0.544291 0.5
233 1 0.8 0.49483 0.5
234 1 0.825 0.544291 0.5
235 1 0.85 0.49483 0.5
236 1 0.875 0.544291 0.5
237 1 0.9 0.49483 0.5
238 1 0.925 0.544291 0.5
239 1 0.95 0.49483 0.5
240 1 0.975 0.544291 0.5
261 1 0.5 0.593751 0.5
262 1 0.525 0.643209 0.5
263 1 0.55 0.593751 0.5
264 1 0.575 0.643209 0.5
265 1 0.6 0.593751 0.5
266 1 0.625 0.643209 0.5
267 1 0.65 0.593751 0.5
268 1 0.675 0.643209 0.5
269 1 0.7 0.593751 0.5
270 1 0.725 0.643209 0.5
271 1 0.75 0.593751 0.5
272 1 0.775 0.643209 0.5
273 1 0.8 0.593751 0.5
274 1 0.825 0.643209 0.5
275 1 0.85 0.593751 0.5
276 1 0.875 0.643209 0.5
277 1 0.9 0.593751 0.5
278 1 0.925 0.643209 0.5
279 1 0.95 0.593751 0.5
280 1 0.975 0.643209 0.5
301 1 0.5 0.692674 0.5
302 1 0.525 0.742134 0.5
303 1 0.55 0.692674 0.5
304 1 0.575 0.742134 0.5
305 1 0.6 0.692674 0.5
306 1 0.625 0.742134 0.5
307 1 0.65 0.692674 0.5
308 1 0.675 0.742134 0.5
309 1 0.7 0.692674 0.5
310 1 0.725 0.742134 0.5
311 1 0.75 0.692674 0.5
312 1 0.775 0.742134 0.5
313 1 0.8 0.692674 0.5
314 1 0.825 0.742134 0.5
315 1 0.85 0.692674 0.5
316 1 0.875 0.742134 0.5
317 1 0.9 0.692674 0.5
318 1 0.925 0.742134 0.5
319 1 0.95 0.692674 0.5
320 1 0.975 0.742134 0.5
341 1 0.5 0.791587 0.5
342 1 0.525 0.841042 0.5
343 1 0.55 0.791587 0.5
344 1 0.575 0.841042 0.5
345 1 0.6 0.791587 0.5
346 1 0.625 0.841042 0.5
347 1 0.65 0.791587 0.5
348 1 0.675 0.841042 0.5
349 1 0.7 0.791587 0.5
350 1 0.725 0.841042 0.5
351 1 0.75 0.791587 0.5
352 1 0.775 0.841042 0.5
353 1 0.8 0.791587 0.5
354 1 0.825 0.841042 0.5
355 1 0.85 0.791587 0.5
356 1 0.875 0.841042 0.5
357 1 0.9 0.791587 0.5
358 1 0.925 0.841042 0.5
359 1 0.95 0.791587 0.5
360 1 0.975 0.841042 0.5
381 3 0.5 0.890474 0.5
382 3 0.525 0.939914 0.5
383 3 0.55 0.890474 0.5
384 3 0.575 0.939914 0.5
385 3 0.6 0.890474 0.5
386 3 0.625 0.939914 0.5
387 3 0.65 0.890474 0.5
388 3 0.675 0.939914 0.5
389 3 0.7 0.890474 0.5
390 3 0.725 0.939914 0.5
391 3 0.75 0.890474 0.5
392 3 0.775 0.939914 0.5
393 1 0.8 0.890474 0.5
394 1 0.825 0.939914 0.5
395 1 0.85 0.890474 0.5
396 1 0.875 0.939914 0.5
397 1 0.9 0.890474 0.5
398 1 0.925 0.939914 0.5
399 1 0.95 0.890474 0.5
400 1 0.975 0.939914 0.5
411 3 0.5 0.989558 0.5
412 3 0.562363 0.999899 0.5
413 3 0.6 0.989558 0.5
414 3 0.65 0.989558 0.5
415 3 0.7 0.989558 0.5
416 3 0.75 0.989558 0.5
417 1 0.8 0.989558 0.5
418 1 0.85 0.989558 0.5
419 1 0.9 0.989558 0.5
420 1 0.95 0.989558 0.5
ITEM: TIMESTEP
150
ITEM: NUMBER OF ATOMS
420
ITEM: BOX BOUNDS pp ss pp
0.0000000000000000e+00 2.2653923264628304e+01
2.1918578738840608e-01 1.9657996131910345e+01
-2.8317404080785380e-01 2.8317404080785380e-01
ITEM: ATOMS id type xs ys zs
1 2 0 0.000100946 0.5
2 2 0.025 0.0495971 0.5
3 2 0.05 0.000100946 0.5
4 2 0.075 0.0495971 0.5
5 2 0.1 0.000100946 0.5
6 2 0.125 0.0495971 0.5
7 2 0.15 0.000100946 0.5
8 2 0.175 0.0495971 0.5
9 2 0.2 0.000100946 0.5
10 2 0.225 0.0495971 0.5
11 2 0.25 0.000100946 0.5
12 2 0.275 0.0495971 0.5
13 2 0.3 0.000100946 0.5
14 2 0.325 0.0495971 0.5
15 2 0.35 0.000100946 0.5
16 2 0.375 0.0495971 0.5
17 2 0.4 0.000100946 0.5
18 2 0.425 0.0495971 0.5
19 2 0.45 0.000100946 0.5
20 2 0.475 0.0495971 0.5
41 2 3.57546e-18 0.0988902 0.5
42 1 0.0250093 0.148206 0.5
43 2 0.05 0.0988902 0.5
44 1 0.075012 0.148207 0.5
45 2 0.1 0.0988902 0.5
46 1 0.125014 0.148208 0.5
47 2 0.15 0.0988902 0.5
48 1 0.175015 0.14821 0.5
49 2 0.2 0.0988902 0.5
50 1 0.225015 0.148211 0.5
51 2 0.25 0.0988902 0.5
52 1 0.275014 0.148213 0.5
53 2 0.3 0.0988902 0.5
54 1 0.325012 0.148214 0.5
55 2 0.35 0.0988902 0.5
56 1 0.375009 0.148214 0.5
57 2 0.4 0.0988902 0.5
58 1 0.425006 0.148214 0.5
59 2 0.45 0.0988902 0.5
60 1 0.475003 0.148214 0.5
81 1 1.55465e-05 0.197519 0.5
82 1 0.025028 0.246832 0.5
83 1 0.0500211 0.197521 0.5
84 1 0.0750353 0.246836 0.5
85 1 0.100025 0.197524 0.5
86 1 0.125041 0.246842 0.5
87 1 0.150028 0.197528 0.5
88 1 0.175044 0.246849 0.5
89 1 0.200029 0.197531 0.5
90 1 0.225044 0.246856 0.5
91 1 0.250028 0.197535 0.5
92 1 0.275041 0.246862 0.5
93 1 0.300025 0.197538 0.5
94 1 0.325036 0.246867 0.5
95 1 0.350021 0.19754 0.5
96 1 0.375029 0.24687 0.5
97 1 0.400015 0.197541 0.5
98 1 0.42502 0.246871 0.5
99 1 0.450009 0.197541 0.5
100 1 0.475011 0.24687 0.5
121 1 3.29094e-05 0.29614 0.5
122 1 0.0250504 0.34545 0.5
123 1 0.0500436 0.296145 0.5
124 1 0.0750626 0.34546 0.5
125 1 0.100052 0.296153 0.5
126 1 0.125072 0.345473 0.5
127 1 0.150058 0.296163 0.5
128 1 0.175078 0.345488 0.5
129 1 0.20006 0.296174 0.5
130 1 0.225079 0.345504 0.5
131 1 0.250059 0.296185 0.5
132 1 0.275076 0.345518 0.5
133 1 0.300054 0.296194 0.5
134 1 0.325068 0.34553 0.5
135 1 0.350046 0.2962 0.5
136 1 0.375057 0.345538 0.5
137 1 0.400036 0.296204 0.5
138 1 0.425043 0.345541 0.5
139 1 0.450024 0.296204 0.5
140 1 0.475027 0.34554 0.5
161 1 5.608e-05 0.394752 0.5
162 1 0.0250802 0.444059 0.5
163 1 0.0500719 0.394762 0.5
164 1 0.0750972 0.444076 0.5
165 1 0.100085 0.394778 0.5
166 1 0.125111 0.4441 0.5
167 1 0.150095 0.394797 0.5
168 1 0.17512 0.444126 0.5
169 1 0.2001 0.394818 0.5
170 1 0.225125 0.444155 0.5
171 1 0.2501 0.394839 0.5
172 1 0.275123 0.444182 0.5
173 1 0.300094 0.394858 0.5
174 1 0.325115 0.444205 0.5
175 1 0.350084 0.394872 0.5
176 1 0.3751 0.444222 0.5
177 1 0.400068 0.394881 0.5
178 1 0.42508 0.44423 0.5
179 1 0.45005 0.394883 0.5
180 1 0.475056 0.44423 0.5
201 1 8.79616e-05 0.493353 0.5
202 1 0.0251185 0.542658 0.5
203 1 0.0501082 0.49337 0.5
204 1 0.0751389 0.542684 0.5
205 1 0.100126 0.493395 0.5
206 1 0.125157 0.542719 0.5
207 1 0.15014 0.493427 0.5
208 1 0.175172 0.54276 0.5
209 1 0.20015 0.493462 0.5
210 1 0.225182 0.542805 0.5
211 1 0.250154 0.493498 0.5
212 1 0.275186 0.542851 0.5
213 1 0.30015 0.493532 0.5
214 1 0.325182 0.542893 0.5
215 1 0.350139 0.49356 0.5
216 1 0.375167 0.542926 0.5
217 1 0.400119 0.493579 0.5
218 1 0.425141 0.542947 0.5
219 1 0.450093 0.493586 0.5
220 1 0.475107 0.54295 0.5
241 1 0.000129229 0.591942 0.5
242 1 0.0251626 0.641247 0.5
243 1 0.0501508 0.591968 0.5
244 1 0.0751828 0.641283 0.5
245 1 0.100171 0.592004 0.5
246 1 0.125204 0.641329 0.5
247 1 0.15019 0.592049 0.5
248 1 0.175225 0.641385 0.5
249 1 0.200207 0.592101 0.5
250 1 0.225245 0.641449 0.5
251 1 0.250219 0.592157 0.5
252 1 0.27526 0.641518 0.5
253 1 0.300224 0.592214 0.5
254 1 0.325267 0.641589 0.5
255 1 0.350218 0.592265 0.5
256 1 0.37526 0.641652 0.5
257 1 0.400198 0.592305 0.5
258 1 0.425235 0.641699 0.5
259 1 0.450165 0.592326 0.5
260 1 0.475191 0.641718 0.5
410 3 0.450719 0.987568 0.5
282 1 0.0252053 0.739832 0.5
283 1 0.0501935 0.690558 0.5
284 1 0.0752196 0.739875 0.5
285 1 0.100213 0.690603 0.5
286 1 0.125239 0.739929 0.5
287 1 0.150235 0.69066 0.5
288 1 0.175265 0.739995 0.5
289 1 0.20026 0.690727 0.5
290 1 0.225295 0.740075 0.5
291 1 0.250285 0.690805 0.5
292 1 0.275328 0.740169 0.5
293 1 0.300306 0.69089 0.5
294 1 0.325357 0.740275 0.5
295 1 0.350317 0.690978 0.5
296 1 0.375375 0.740385 0.5
297 1 0.40031 0.691058 0.5
298 1 0.42537 0.740487 0.5
299 1 0.450278 0.691114 0.5
300 1 0.475329 0.740555 0.5
321 1 0.000220792 0.789109 0.5
322 1 0.0252355 0.838424 0.5
323 1 0.0502263 0.789147 0.5
324 1 0.0752377 0.838467 0.5
325 1 0.100239 0.789196 0.5
326 1 0.12525 0.838521 0.5
327 1 0.15026 0.789258 0.5
328 1 0.175274 0.838589 0.5
329 1 0.20029 0.789334 0.5
330 1 0.22531 0.838676 0.5
331 1 0.250328 0.789428 0.5
332 1 0.275357 0.838786 0.5
333 1 0.300372 0.789542 0.5
334 1 0.325414 0.838922 0.5
335 1 0.350414 0.789673 0.5
336 1 0.375474 0.839085 0.5
337 1 0.400443 0.789813 0.5
338 1 0.425521 0.839268 0.5
339 1 0.450444 0.78995 0.5
340 1 0.475535 0.839461 0.5
361 1 0.000249111 0.887708 0.5
362 1 0.0252413 0.937032 0.5
363 1 0.0502379 0.887744 0.5
364 1 0.0752277 0.937069 0.5
365 1 0.100238 0.887789 0.5
366 1 0.125227 0.937116 0.5
367 1 0.150251 0.887848 0.5
368 1 0.175239 0.937178 0.5
369 1 0.200278 0.887922 0.5
370 1 0.225267 0.937259 0.5
371 1 0.250319 0.88802 0.5
372 1 0.275313 0.937367 0.5
373 1 0.300377 0.888146 0.5
374 1 0.325382 0.93751 0.5
375 1 0.350452 0.888309 0.5
376 1 0.375482 0.937701 0.5
377 1 0.400537 0.888514 0.5
378 1 0.425619 0.937951 0.5
379 3 0.450609 0.888755 0.5
380 3 0.4758 0.938394 0.5
409 1 0.400492 0.98729 0.5
402 1 0.0502205 0.986566 0.5
403 1 0.100205 0.986604 0.5
404 1 0.150202 0.986653 0.5
405 1 0.200212 0.986719 0.5
406 1 0.250238 0.986807 0.5
407 1 0.300284 0.986924 0.5
408 1 0.350362 0.987081 0.5
181 1 0.50003 0.394879 0.5
301 1 0.50022 0.691128 0.5
21 2 0.5 0.000100946 0.5
22 2 0.525 0.0495971 0.5
23 2 0.55 0.000100946 0.5
24 2 0.575 0.0495971 0.5
25 2 0.6 0.000100946 0.5
26 2 0.625 0.0495971 0.5
27 2 0.65 0.000100946 0.5
28 2 0.675 0.0495971 0.5
29 2 0.7 0.000100946 0.5
30 2 0.725 0.0495971 0.5
31 2 0.75 0.000100946 0.5
32 2 0.775 0.0495971 0.5
33 2 0.8 0.000100946 0.5
34 2 0.825 0.0495971 0.5
35 2 0.85 0.000100946 0.5
36 2 0.875 0.0495971 0.5
37 2 0.9 0.000100946 0.5
38 2 0.925 0.0495971 0.5
39 2 0.95 0.000100946 0.5
40 2 0.975 0.0495971 0.5
61 2 0.5 0.0988902 0.5
62 1 0.525 0.148213 0.5
63 2 0.55 0.0988902 0.5
64 1 0.574997 0.148212 0.5
65 2 0.6 0.0988902 0.5
66 1 0.624995 0.148211 0.5
67 2 0.65 0.0988902 0.5
68 1 0.674994 0.14821 0.5
69 2 0.7 0.0988902 0.5
70 1 0.724994 0.148209 0.5
71 2 0.75 0.0988902 0.5
72 1 0.774995 0.148207 0.5
73 2 0.8 0.0988902 0.5
74 1 0.824997 0.148206 0.5
75 2 0.85 0.0988902 0.5
76 1 0.875 0.148205 0.5
77 2 0.9 0.0988902 0.5
78 1 0.925003 0.148205 0.5
79 2 0.95 0.0988902 0.5
80 1 0.975006 0.148205 0.5
101 1 0.500003 0.19754 0.5
102 1 0.525003 0.246868 0.5
103 1 0.549998 0.197538 0.5
104 1 0.574995 0.246863 0.5
105 1 0.599994 0.197535 0.5
106 1 0.62499 0.246858 0.5
107 1 0.649991 0.197532 0.5
108 1 0.674987 0.246852 0.5
109 1 0.69999 0.197529 0.5
110 1 0.724987 0.246846 0.5
111 1 0.749991 0.197525 0.5
112 1 0.774989 0.24684 0.5
113 1 0.799993 0.197522 0.5
114 1 0.824994 0.246834 0.5
115 1 0.849998 0.19752 0.5
116 1 0.875002 0.246831 0.5
117 1 0.900003 0.197519 0.5
118 1 0.92501 0.246829 0.5
119 1 0.950009 0.197518 0.5
120 1 0.975019 0.246829 0.5
141 1 0.500012 0.296201 0.5
142 1 0.525012 0.345534 0.5
143 1 0.550001 0.296196 0.5
144 1 0.574999 0.345525 0.5
145 1 0.599992 0.296188 0.5
146 1 0.624989 0.345512 0.5
147 1 0.649986 0.296179 0.5
148 1 0.674983 0.345498 0.5
149 1 0.699984 0.296169 0.5
150 1 0.724982 0.345484 0.5
151 1 0.749985 0.29616 0.5
152 1 0.774986 0.345469 0.5
153 1 0.79999 0.296151 0.5
154 1 0.824995 0.345457 0.5
155 1 0.849999 0.296144 0.5
156 1 0.875007 0.345449 0.5
157 1 0.900009 0.296139 0.5
158 1 0.925021 0.345444 0.5
159 1 0.950021 0.296138 0.5
160 1 0.975036 0.345445 0.5
420 1 0.950291 0.986518 0.5
182 1 0.525032 0.44422 0.5
183 1 0.550011 0.394868 0.5
184 1 0.57501 0.444203 0.5
185 1 0.599996 0.394853 0.5
186 1 0.624993 0.444179 0.5
187 1 0.649985 0.394834 0.5
188 1 0.674983 0.444152 0.5
189 1 0.699981 0.394814 0.5
190 1 0.724982 0.444123 0.5
191 1 0.749983 0.394793 0.5
192 1 0.774988 0.444096 0.5
193 1 0.799991 0.394775 0.5
194 1 0.825002 0.444073 0.5
195 1 0.850004 0.39476 0.5
196 1 0.87502 0.444057 0.5
197 1 0.900021 0.394751 0.5
198 1 0.92504 0.444048 0.5
199 1 0.950039 0.394748 0.5
200 1 0.975061 0.444049 0.5
221 1 0.500063 0.493581 0.5
222 1 0.525069 0.542937 0.5
223 1 0.550034 0.493564 0.5
224 1 0.575034 0.542908 0.5
225 1 0.600008 0.493536 0.5
226 1 0.625007 0.542866 0.5
227 1 0.649991 0.493502 0.5
228 1 0.674991 0.542817 0.5
229 1 0.699984 0.493463 0.5
230 1 0.72499 0.542765 0.5
231 1 0.749987 0.493425 0.5
232 1 0.775001 0.542716 0.5
233 1 0.8 0.493391 0.5
234 1 0.825021 0.542676 0.5
235 1 0.85002 0.493365 0.5
236 1 0.875046 0.54265 0.5
237 1 0.900042 0.493349 0.5
238 1 0.925072 0.542638 0.5
239 1 0.950066 0.493345 0.5
240 1 0.975096 0.542642 0.5
261 1 0.500121 0.592323 0.5
262 1 0.525135 0.641704 0.5
263 1 0.550075 0.592296 0.5
264 1 0.575078 0.641657 0.5
265 1 0.600034 0.592249 0.5
266 1 0.625034 0.641584 0.5
267 1 0.650007 0.592188 0.5
268 1 0.675013 0.641494 0.5
269 1 0.699997 0.592119 0.5
270 1 0.725015 0.641401 0.5
271 1 0.750005 0.592051 0.5
272 1 0.775037 0.641317 0.5
273 1 0.800027 0.591993 0.5
274 1 0.825067 0.641258 0.5
275 1 0.850053 0.591952 0.5
276 1 0.875095 0.641224 0.5
277 1 0.900081 0.591931 0.5
278 1 0.92512 0.641214 0.5
279 1 0.950106 0.591929 0.5
280 1 0.975142 0.641223 0.5
419 1 0.900351 0.986507 0.5
302 1 0.525249 0.740558 0.5
303 1 0.550147 0.691093 0.5
304 1 0.575154 0.740486 0.5
305 1 0.60008 0.691012 0.5
306 1 0.625083 0.740349 0.5
307 1 0.650039 0.690899 0.5
308 1 0.67506 0.740177 0.5
309 1 0.700033 0.690772 0.5
310 1 0.725088 0.740004 0.5
311 1 0.750057 0.690653 0.5
312 1 0.775127 0.739882 0.5
313 1 0.80009 0.690567 0.5
314 1 0.825156 0.739814 0.5
315 1 0.850119 0.690518 0.5
316 1 0.875174 0.739786 0.5
317 1 0.900142 0.6905 0.5
318 1 0.925186 0.739785 0.5
319 1 0.95016 0.690504 0.5
320 1 0.975195 0.739802 0.5
341 1 0.500389 0.790036 0.5
342 1 0.525456 0.839581 0.5
343 1 0.550274 0.790012 0.5
344 1 0.575285 0.839487 0.5
345 1 0.600156 0.789867 0.5
346 1 0.625156 0.839197 0.5
347 1 0.650099 0.789636 0.5
348 1 0.67522 0.838772 0.5
349 1 0.700138 0.789373 0.5
350 1 0.725277 0.838524 0.5
351 1 0.750186 0.789201 0.5
352 1 0.775299 0.83841 0.5
353 1 0.800213 0.789111 0.5
354 1 0.825292 0.838367 0.5
355 1 0.850223 0.789074 0.5
356 1 0.875275 0.838358 0.5
357 1 0.900223 0.789069 0.5
358 1 0.925256 0.838368 0.5
359 1 0.950221 0.789082 0.5
360 1 0.975242 0.838391 0.5
381 3 0.500641 0.889064 0.5
382 3 0.525887 0.939023 0.5
383 3 0.550523 0.889236 0.5
384 3 0.57542 0.939459 0.5
385 3 0.600241 0.888969 0.5
386 3 0.625698 0.937779 0.5
387 3 0.65037 0.888209 0.5
388 3 0.675696 0.93724 0.5
389 3 0.700428 0.887853 0.5
390 3 0.725612 0.937038 0.5
391 3 0.750423 0.887706 0.5
392 3 0.775516 0.936974 0.5
393 1 0.800389 0.887664 0.5
394 1 0.825433 0.936968 0.5
395 1 0.850344 0.887655 0.5
396 1 0.875362 0.936971 0.5
397 1 0.900303 0.887662 0.5
398 1 0.925308 0.936983 0.5
399 1 0.950271 0.887681 0.5
400 1 0.975268 0.937004 0.5
411 3 0.501483 0.988501 0.5
412 3 0.554279 1.00525 0.5
413 3 0.60169 0.987907 0.5
414 3 0.651256 0.986977 0.5
415 3 0.700931 0.986655 0.5
416 3 0.750701 0.986536 0.5
417 1 0.800543 0.98651 0.5
418 1 0.850433 0.986504 0.5
281 1 1.00018 0.690524 0.5
401 1 1.00025 0.986538 0.5
ITEM: TIMESTEP
182
ITEM: NUMBER OF ATOMS
420
ITEM: BOX BOUNDS pp ss pp
0.0000000000000000e+00 2.2653923264628304e+01
2.1918578738840608e-01 1.9761940041856455e+01
-2.8317404080785380e-01 2.8317404080785380e-01
ITEM: ATOMS id type xs ys zs
1 2 0 0.00010041 0.5
2 2 0.025 0.0493333 0.5
3 2 0.05 0.00010041 0.5
4 2 0.075 0.0493333 0.5
5 2 0.1 0.00010041 0.5
6 2 0.125 0.0493333 0.5
7 2 0.15 0.00010041 0.5
8 2 0.175 0.0493333 0.5
9 2 0.2 0.00010041 0.5
10 2 0.225 0.0493333 0.5
11 2 0.25 0.00010041 0.5
12 2 0.275 0.0493333 0.5
13 2 0.3 0.00010041 0.5
14 2 0.325 0.0493333 0.5
15 2 0.35 0.00010041 0.5
16 2 0.375 0.0493333 0.5
17 2 0.4 0.00010041 0.5
18 2 0.425 0.0493333 0.5
19 2 0.45 0.00010041 0.5
20 2 0.475 0.0493333 0.5
41 2 3.57546e-18 0.0983643 0.5
42 1 0.0250127 0.14742 0.5
43 2 0.05 0.0983643 0.5
44 1 0.0750157 0.147421 0.5
45 2 0.1 0.0983643 0.5
46 1 0.125018 0.147423 0.5
47 2 0.15 0.0983643 0.5
48 1 0.175019 0.147425 0.5
49 2 0.2 0.0983643 0.5
50 1 0.225019 0.147426 0.5
51 2 0.25 0.0983643 0.5
52 1 0.275018 0.147428 0.5
53 2 0.3 0.0983643 0.5
54 1 0.325016 0.147429 0.5
55 2 0.35 0.0983643 0.5
56 1 0.375013 0.147429 0.5
57 2 0.4 0.0983643 0.5
58 1 0.425009 0.147429 0.5
59 2 0.45 0.0983643 0.5
60 1 0.475006 0.147429 0.5
81 1 2.17431e-05 0.196474 0.5
82 1 0.0250379 0.245527 0.5
83 1 0.0500281 0.196476 0.5
84 1 0.0750464 0.245531 0.5
85 1 0.100033 0.196479 0.5
86 1 0.125053 0.245538 0.5
87 1 0.150037 0.196483 0.5
88 1 0.175056 0.245545 0.5
89 1 0.200038 0.196487 0.5
90 1 0.225057 0.245552 0.5
91 1 0.250037 0.196491 0.5
92 1 0.275054 0.245559 0.5
93 1 0.300034 0.196494 0.5
94 1 0.325048 0.245564 0.5
95 1 0.350029 0.196496 0.5
96 1 0.37504 0.245568 0.5
97 1 0.400023 0.196498 0.5
98 1 0.425031 0.245569 0.5
99 1 0.450016 0.196498 0.5
100 1 0.475021 0.245568 0.5
121 1 4.5392e-05 0.294575 0.5
122 1 0.025067 0.343624 0.5
123 1 0.0500576 0.29458 0.5
124 1 0.075081 0.343634 0.5
125 1 0.100068 0.294588 0.5
126 1 0.125092 0.343648 0.5
127 1 0.150074 0.294599 0.5
128 1 0.175098 0.343664 0.5
129 1 0.200077 0.29461 0.5
130 1 0.2251 0.343681 0.5
131 1 0.250076 0.294621 0.5
132 1 0.275097 0.343696 0.5
133 1 0.300071 0.294631 0.5
134 1 0.325089 0.343709 0.5
135 1 0.350062 0.294639 0.5
136 1 0.375076 0.343718 0.5
137 1 0.400051 0.294643 0.5
138 1 0.425061 0.343722 0.5
139 1 0.450038 0.294644 0.5
140 1 0.475043 0.343721 0.5
161 1 7.49109e-05 0.392665 0.5
162 1 0.0251034 0.44171 0.5
163 1 0.0500929 0.392675 0.5
164 1 0.0751226 0.441728 0.5
165 1 0.100108 0.392691 0.5
166 1 0.125138 0.441753 0.5
167 1 0.150119 0.392712 0.5
168 1 0.175149 0.441781 0.5
169 1 0.200125 0.392734 0.5
170 1 0.225154 0.441811 0.5
171 1 0.250125 0.392757 0.5
172 1 0.275152 0.44184 0.5
173 1 0.300119 0.392777 0.5
174 1 0.325143 0.441866 0.5
175 1 0.350107 0.392793 0.5
176 1 0.375127 0.441884 0.5
177 1 0.40009 0.392803 0.5
178 1 0.425105 0.441894 0.5
179 1 0.45007 0.392806 0.5
180 1 0.475079 0.441894 0.5
201 1 0.000112992 0.490742 0.5
202 1 0.0251477 0.539785 0.5
203 1 0.0501357 0.49076 0.5
204 1 0.0751705 0.539812 0.5
205 1 0.100155 0.490786 0.5
206 1 0.12519 0.539849 0.5
207 1 0.150171 0.490819 0.5
208 1 0.175207 0.539893 0.5
209 1 0.200182 0.490857 0.5
210 1 0.225217 0.539941 0.5
211 1 0.250186 0.490896 0.5
212 1 0.275221 0.539989 0.5
213 1 0.300182 0.490932 0.5
214 1 0.325215 0.540034 0.5
215 1 0.350169 0.490963 0.5
216 1 0.375198 0.54007 0.5
217 1 0.400148 0.490984 0.5
218 1 0.425171 0.540092 0.5
219 1 0.45012 0.490992 0.5
220 1 0.475135 0.540097 0.5
241 1 0.000159888 0.588807 0.5
242 1 0.0251969 0.637849 0.5
243 1 0.0501839 0.588833 0.5
244 1 0.0752192 0.637886 0.5
245 1 0.100206 0.588871 0.5
246 1 0.125242 0.637935 0.5
247 1 0.150227 0.588918 0.5
248 1 0.175264 0.637995 0.5
249 1 0.200244 0.588974 0.5
250 1 0.225283 0.638063 0.5
251 1 0.250256 0.589033 0.5
252 1 0.275298 0.638136 0.5
253 1 0.30026 0.589093 0.5
254 1 0.325304 0.63821 0.5
255 1 0.350253 0.589148 0.5
256 1 0.375295 0.638277 0.5
257 1 0.400231 0.58919 0.5
258 1 0.425268 0.638326 0.5
259 1 0.450195 0.589213 0.5
260 1 0.475222 0.638346 0.5
410 3 0.450735 0.98236 0.5
282 1 0.025243 0.735909 0.5
283 1 0.0502307 0.686898 0.5
284 1 0.0752588 0.735953 0.5
285 1 0.100252 0.686946 0.5
286 1 0.125279 0.736011 0.5
287 1 0.150275 0.687006 0.5
288 1 0.175305 0.736082 0.5
289 1 0.2003 0.687078 0.5
290 1 0.225334 0.736167 0.5
291 1 0.250324 0.68716 0.5
292 1 0.275365 0.736266 0.5
293 1 0.300344 0.68725 0.5
294 1 0.325393 0.736375 0.5
295 1 0.350353 0.687341 0.5
296 1 0.375409 0.736488 0.5
297 1 0.400344 0.687423 0.5
298 1 0.425402 0.736593 0.5
299 1 0.45031 0.687481 0.5
300 1 0.47536 0.736662 0.5
321 1 0.000258805 0.784923 0.5
322 1 0.0252745 0.833975 0.5
323 1 0.0502655 0.784962 0.5
324 1 0.0752769 0.83402 0.5
325 1 0.100279 0.785014 0.5
326 1 0.125289 0.834079 0.5
327 1 0.1503 0.78508 0.5
328 1 0.175312 0.834153 0.5
329 1 0.200329 0.785162 0.5
330 1 0.225346 0.834246 0.5
331 1 0.250366 0.785262 0.5
332 1 0.275391 0.834361 0.5
333 1 0.300407 0.78538 0.5
334 1 0.325446 0.834501 0.5
335 1 0.350446 0.785514 0.5
336 1 0.375503 0.834667 0.5
337 1 0.400473 0.785657 0.5
338 1 0.425548 0.83485 0.5
339 1 0.450473 0.785794 0.5
340 1 0.475561 0.835043 0.5
361 1 0.000288085 0.882996 0.5
362 1 0.0252794 0.932058 0.5
363 1 0.0502765 0.883033 0.5
364 1 0.075264 0.932098 0.5
365 1 0.100276 0.883083 0.5
366 1 0.125261 0.932151 0.5
367 1 0.150287 0.883147 0.5
368 1 0.175272 0.932219 0.5
369 1 0.200312 0.883228 0.5
370 1 0.225297 0.932308 0.5
371 1 0.250352 0.883332 0.5
372 1 0.275341 0.932422 0.5
373 1 0.300407 0.883463 0.5
374 1 0.325408 0.932569 0.5
375 1 0.350479 0.883629 0.5
376 1 0.375504 0.932761 0.5
377 1 0.400561 0.883834 0.5
378 1 0.425639 0.933009 0.5
379 3 0.450631 0.884073 0.5
380 3 0.475818 0.933448 0.5
409 1 0.400512 0.982087 0.5
402 1 0.0502558 0.981331 0.5
403 1 0.100237 0.981373 0.5
404 1 0.150231 0.981429 0.5
405 1 0.200239 0.981502 0.5
406 1 0.250262 0.981596 0.5
407 1 0.300307 0.981719 0.5
408 1 0.350384 0.981879 0.5
281 1 0.000211611 0.686863 0.5
401 1 0.000286972 0.981301 0.5
21 2 0.5 0.00010041 0.5
22 2 0.525 0.0493333 0.5
23 2 0.55 0.00010041 0.5
24 2 0.575 0.0493333 0.5
25 2 0.6 0.00010041 0.5
26 2 0.625 0.0493333 0.5
27 2 0.65 0.00010041 0.5
28 2 0.675 0.0493333 0.5
29 2 0.7 0.00010041 0.5
30 2 0.725 0.0493333 0.5
31 2 0.75 0.00010041 0.5
32 2 0.775 0.0493333 0.5
33 2 0.8 0.00010041 0.5
34 2 0.825 0.0493333 0.5
35 2 0.85 0.00010041 0.5
36 2 0.875 0.0493333 0.5
37 2 0.9 0.00010041 0.5
38 2 0.925 0.0493333 0.5
39 2 0.95 0.00010041 0.5
40 2 0.975 0.0493333 0.5
61 2 0.5 0.0983643 0.5
62 1 0.525002 0.147429 0.5
63 2 0.55 0.0983643 0.5
64 1 0.574999 0.147428 0.5
65 2 0.6 0.0983643 0.5
66 1 0.624997 0.147426 0.5
67 2 0.65 0.0983643 0.5
68 1 0.674996 0.147425 0.5
69 2 0.7 0.0983643 0.5
70 1 0.724996 0.147423 0.5
71 2 0.75 0.0983643 0.5
72 1 0.774997 0.147422 0.5
73 2 0.8 0.0983643 0.5
74 1 0.824999 0.147421 0.5
75 2 0.85 0.0983643 0.5
76 1 0.875002 0.14742 0.5
77 2 0.9 0.0983643 0.5
78 1 0.925005 0.14742 0.5
79 2 0.95 0.0983643 0.5
80 1 0.975009 0.14742 0.5
101 1 0.500009 0.196497 0.5
102 1 0.525011 0.245565 0.5
103 1 0.550003 0.196495 0.5
104 1 0.575002 0.245561 0.5
105 1 0.599998 0.196492 0.5
106 1 0.624996 0.245555 0.5
107 1 0.649995 0.196488 0.5
108 1 0.674992 0.245549 0.5
109 1 0.699993 0.196485 0.5
110 1 0.724992 0.245542 0.5
111 1 0.749994 0.196481 0.5
112 1 0.774994 0.245536 0.5
113 1 0.799997 0.196478 0.5
114 1 0.825 0.24553 0.5
115 1 0.850002 0.196475 0.5
116 1 0.875008 0.245526 0.5
117 1 0.900008 0.196474 0.5
118 1 0.925018 0.245524 0.5
119 1 0.950015 0.196473 0.5
120 1 0.975028 0.245524 0.5
141 1 0.500024 0.294641 0.5
142 1 0.525026 0.343715 0.5
143 1 0.550011 0.294635 0.5
144 1 0.575011 0.343705 0.5
145 1 0.600001 0.294627 0.5
146 1 0.624999 0.343692 0.5
147 1 0.649994 0.294618 0.5
148 1 0.674993 0.343677 0.5
149 1 0.699991 0.294607 0.5
150 1 0.724991 0.343662 0.5
151 1 0.749992 0.294597 0.5
152 1 0.774996 0.343646 0.5