ITEM: TIMESTEP
0
ITEM: NUMBER OF ATOMS
420
ITEM: BOX BOUNDS pp ss pp
0.0000000000000000e+00 2.2653923264628304e+01
2.1918578738840608e-01 2.0201341818449343e+01
-2.8317404080785380e-01 2.8317404080785380e-01
ITEM: ATOMS id type xs ys zs
1 2 0 9.82016e-05 0.5
2 2 0.025 0.0482484 0.5
3 2 0.05 9.82016e-05 0.5
4 2 0.075 0.0482484 0.5
5 2 0.1 9.82016e-05 0.5
6 2 0.125 0.0482484 0.5
7 2 0.15 9.82016e-05 0.5
8 2 0.175 0.0482484 0.5
9 2 0.2 9.82016e-05 0.5
10 2 0.225 0.0482484 0.5
11 2 0.25 9.82016e-05 0.5
12 2 0.275 0.0482484 0.5
13 2 0.3 9.82016e-05 0.5
14 2 0.325 0.0482484 0.5
15 2 0.35 9.82016e-05 0.5
16 2 0.375 0.0482484 0.5
17 2 0.4 9.82016e-05 0.5
18 2 0.425 0.0482484 0.5
19 2 0.45 9.82016e-05 0.5
20 2 0.475 0.0482484 0.5
41 2 3.57546e-18 0.0962013 0.5
42 1 0.025 0.144146 0.5
43 2 0.05 0.0962013 0.5
44 1 0.075 0.144146 0.5
45 2 0.1 0.0962013 0.5
46 1 0.125 0.144146 0.5
47 2 0.15 0.0962013 0.5
48 1 0.175 0.144146 0.5
49 2 0.2 0.0962013 0.5
50 1 0.225 0.144146 0.5
51 2 0.25 0.0962013 0.5
52 1 0.275 0.144146 0.5
53 2 0.3 0.0962013 0.5
54 1 0.325 0.144146 0.5
55 2 0.35 0.0962013 0.5
56 1 0.375 0.144146 0.5
57 2 0.4 0.0962013 0.5
58 1 0.425 0.144146 0.5
59 2 0.45 0.0962013 0.5
60 1 0.475 0.144146 0.5
81 1 2.74429e-20 0.192113 0.5
82 1 0.025 0.240077 0.5
83 1 0.05 0.192113 0.5
84 1 0.075 0.240077 0.5
85 1 0.1 0.192113 0.5
86 1 0.125 0.240077 0.5
87 1 0.15 0.192113 0.5
88 1 0.175 0.240077 0.5
89 1 0.2 0.192113 0.5
90 1 0.225 0.240077 0.5
91 1 0.25 0.192113 0.5
92 1 0.275 0.240077 0.5
93 1 0.3 0.192113 0.5
94 1 0.325 0.240077 0.5
95 1 0.35 0.192113 0.5
96 1 0.375 0.240077 0.5
97 1 0.4 0.192113 0.5
98 1 0.425 0.240077 0.5
99 1 0.45 0.192113 0.5
100 1 0.475 0.240077 0.5
121 1 0 0.28805 0.5
122 1 0.025 0.336026 0.5
123 1 0.05 0.28805 0.5
124 1 0.075 0.336026 0.5
125 1 0.1 0.28805 0.5
126 1 0.125 0.336026 0.5
127 1 0.15 0.28805 0.5
128 1 0.175 0.336026 0.5
129 1 0.2 0.28805 0.5
130 1 0.225 0.336026 0.5
131 1 0.25 0.28805 0.5
132 1 0.275 0.336026 0.5
133 1 0.3 0.28805 0.5
134 1 0.325 0.336026 0.5
135 1 0.35 0.28805 0.5
136 1 0.375 0.336026 0.5
137 1 0.4 0.28805 0.5
138 1 0.425 0.336026 0.5
139 1 0.45 0.28805 0.5
140 1 0.475 0.336026 0.5
161 1 0 0.383996 0.5
162 1 0.025 0.431967 0.5
163 1 0.05 0.383996 0.5
164 1 0.075 0.431967 0.5
165 1 0.1 0.383996 0.5
166 1 0.125 0.431967 0.5
167 1 0.15 0.383996 0.5
168 1 0.175 0.431967 0.5
169 1 0.2 0.383996 0.5
170 1 0.225 0.431967 0.5
171 1 0.25 0.383996 0.5
172 1 0.275 0.431967 0.5
173 1 0.3 0.383996 0.5
174 1 0.325 0.431967 0.5
175 1 0.35 0.383996 0.5
176 1 0.375 0.431967 0.5
177 1 0.4 0.383996 0.5
178 1 0.425 0.431967 0.5
179 1 0.45 0.383996 0.5
180 1 0.475 0.431967 0.5
201 1 0 0.479941 0.5
202 1 0.025 0.527914 0.5
203 1 0.05 0.479941 0.5
204 1 0.075 0.527914 0.5
205 1 0.1 0.479941 0.5
206 1 0.125 0.527914 0.5
207 1 0.15 0.479941 0.5
208 1 0.175 0.527914 0.5
209 1 0.2 0.479941 0.5
210 1 0.225 0.527914 0.5
211 1 0.25 0.479941 0.5
212 1 0.275 0.527914 0.5
213 1 0.3 0.479941 0.5
214 1 0.325 0.527914 0.5
215 1 0.35 0.479941 0.5
216 1 0.375 0.527914 0.5
217 1 0.4 0.479941 0.5
218 1 0.425 0.527914 0.5
219 1 0.45 0.479941 0.5
220 1 0.475 0.527914 0.5
241 1 0 0.575886 0.5
242 1 0.025 0.623856 0.5
243 1 0.05 0.575886 0.5
244 1 0.075 0.623856 0.5
245 1 0.1 0.575886 0.5
246 1 0.125 0.623856 0.5
247 1 0.15 0.575886 0.5
248 1 0.175 0.623856 0.5
249 1 0.2 0.575886 0.5
250 1 0.225 0.623856 0.5
251 1 0.25 0.575886 0.5
252 1 0.275 0.623856 0.5
253 1 0.3 0.575886 0.5
254 1 0.325 0.623856 0.5
255 1 0.35 0.575886 0.5
256 1 0.375 0.623856 0.5
257 1 0.4 0.575886 0.5
258 1 0.425 0.623856 0.5
259 1 0.45 0.575886 0.5
260 1 0.475 0.623856 0.5
281 1 2.18851e-18 0.671832 0.5
282 1 0.025 0.719804 0.5
283 1 0.05 0.671832 0.5
284 1 0.075 0.719804 0.5
285 1 0.1 0.671832 0.5
286 1 0.125 0.719804 0.5
287 1 0.15 0.671832 0.5
288 1 0.175 0.719804 0.5
289 1 0.2 0.671832 0.5
290 1 0.225 0.719804 0.5
291 1 0.25 0.671832 0.5
292 1 0.275 0.719804 0.5
293 1 0.3 0.671832 0.5
294 1 0.325 0.719804 0.5
295 1 0.35 0.671832 0.5
296 1 0.375 0.719804 0.5
297 1 0.4 0.671832 0.5
298 1 0.425 0.719804 0.5
299 1 0.45 0.671832 0.5
300 1 0.475 0.719804 0.5
321 1 0 0.767769 0.5
322 1 0.025 0.815736 0.5
323 1 0.05 0.767769 0.5
324 1 0.075 0.815736 0.5
325 1 0.1 0.767769 0.5
326 1 0.125 0.815736 0.5
327 1 0.15 0.767769 0.5
328 1 0.175 0.815736 0.5
329 1 0.2 0.767769 0.5
330 1 0.225 0.815736 0.5
331 1 0.25 0.767769 0.5
332 1 0.275 0.815736 0.5
333 1 0.3 0.767769 0.5
334 1 0.325 0.815736 0.5
335 1 0.35 0.767769 0.5
336 1 0.375 0.815736 0.5
337 1 0.4 0.767769 0.5
338 1 0.425 0.815736 0.5
339 1 0.45 0.767769 0.5
340 1 0.475 0.815736 0.5
361 1 5.74281e-19 0.86368 0.5
362 1 0.025 0.911633 0.5
363 1 0.05 0.86368 0.5
364 1 0.075 0.911633 0.5
365 1 0.1 0.86368 0.5
366 1 0.125 0.911633 0.5
367 1 0.15 0.86368 0.5
368 1 0.175 0.911633 0.5
369 1 0.2 0.86368 0.5
370 1 0.225 0.911633 0.5
371 1 0.25 0.86368 0.5
372 1 0.275 0.911633 0.5
373 1 0.3 0.86368 0.5
374 1 0.325 0.911633 0.5
375 1 0.35 0.86368 0.5
376 1 0.375 0.911633 0.5
377 1 0.4 0.86368 0.5
378 1 0.425 0.911633 0.5
379 3 0.45 0.86368 0.5
380 3 0.475 0.911633 0.5
401 1 3.60804e-19 0.959783 0.5
402 1 0.05 0.959783 0.5
403 1 0.1 0.959783 0.5
404 1 0.15 0.959783 0.5
405 1 0.2 0.959783 0.5
406 1 0.25 0.959783 0.5
407 1 0.3 0.959783 0.5
408 1 0.35 0.959783 0.5
409 1 0.4 0.959783 0.5
410 3 0.45 0.959783 0.5
21 2 0.5 9.82016e-05 0.5
22 2 0.525 0.0482484 0.5
23 2 0.55 9.82016e-05 0.5
24 2 0.575 0.0482484 0.5
25 2 0.6 9.82016e-05 0.5
26 2 0.625 0.0482484 0.5
27 2 0.65 9.82016e-05 0.5
28 2 0.675 0.0482484 0.5
29 2 0.7 9.82016e-05 0.5
30 2 0.725 0.0482484 0.5
31 2 0.75 9.82016e-05 0.5
32 2 0.775 0.0482484 0.5
33 2 0.8 9.82016e-05 0.5
34 2 0.825 0.0482484 0.5
35 2 0.85 9.82016e-05 0.5
36 2 0.875 0.0482484 0.5
37 2 0.9 9.82016e-05 0.5
38 2 0.925 0.0482484 0.5
39 2 0.95 9.82016e-05 0.5
40 2 0.975 0.0482484 0.5
61 2 0.5 0.0962013 0.5
62 1 0.525 0.144146 0.5
63 2 0.55 0.0962013 0.5
64 1 0.575 0.144146 0.5
65 2 0.6 0.0962013 0.5
66 1 0.625 0.144146 0.5
67 2 0.65 0.0962013 0.5
68 1 0.675 0.144146 0.5
69 2 0.7 0.0962013 0.5
70 1 0.725 0.144146 0.5
71 2 0.75 0.0962013 0.5
72 1 0.775 0.144146 0.5
73 2 0.8 0.0962013 0.5
74 1 0.825 0.144146 0.5
75 2 0.85 0.0962013 0.5
76 1 0.875 0.144146 0.5
77 2 0.9 0.0962013 0.5
78 1 0.925 0.144146 0.5
79 2 0.95 0.0962013 0.5
80 1 0.975 0.144146 0.5
101 1 0.5 0.192113 0.5
102 1 0.525 0.240077 0.5
103 1 0.55 0.192113 0.5
104 1 0.575 0.240077 0.5
105 1 0.6 0.192113 0.5
106 1 0.625 0.240077 0.5
107 1 0.65 0.192113 0.5
108 1 0.675 0.240077 0.5
109 1 0.7 0.192113 0.5
110 1 0.725 0.240077 0.5
111 1 0.75 0.192113 0.5
112 1 0.775 0.240077 0.5
113 1 0.8 0.192113 0.5
114 1 0.825 0.240077 0.5
115 1 0.85 0.192113 0.5
116 1 0.875 0.240077 0.5
117 1 0.9 0.192113 0.5
118 1 0.925 0.240077 0.5
119 1 0.95 0.192113 0.5
120 1 0.975 0.240077 0.5
141 1 0.5 0.28805 0.5
142 1 0.525 0.336026 0.5
143 1 0.55 0.28805 0.5
144 1 0.575 0.336026 0.5
145 1 0.6 0.28805 0.5
146 1 0.625 0.336026 0.5
147 1 0.65 0.28805 0.5
148 1 0.675 0.336026 0.5
149 1 0.7 0.28805 0.5
150 1 0.725 0.336026 0.5
151 1 0.75 0.28805 0.5
152 1 0.775 0.336026 0.5
153 1 0.8 0.28805 0.5
154 1 0.825 0.336026 0.5
155 1 0.85 0.28805 0.5
156 1 0.875 0.336026 0.5
157 1 0.9 0.28805 0.5
158 1 0.925 0.336026 0.5
159 1 0.95 0.28805 0.5
160 1 0.975 0.336026 0.5
181 1 0.5 0.383996 0.5
182 1 0.525 0.431967 0.5
183 1 0.55 0.383996 0.5
184 1 0.575 0.431967 0.5
185 1 0.6 0.383996 0.5
186 1 0.625 0.431967 0.5
187 1 0.65 0.383996 0.5
188 1 0.675 0.431967 0.5
189 1 0.7 0.383996 0.5
190 1 0.725 0.431967 0.5
191 1 0.75 0.383996 0.5
192 1 0.775 0.431967 0.5
193 1 0.8 0.383996 0.5
194 1 0.825 0.431967 0.5
195 1 0.85 0.383996 0.5
196 1 0.875 0.431967 0.5
197 1 0.9 0.383996 0.5
198 1 0.925 0.431967 0.5
199 1 0.95 0.383996 0.5
200 1 0.975 0.431967 0.5
221 1 0.5 0.479941 0.5
222 1 0.525 0.527914 0.5
223 1 0.55 0.479941 0.5
224 1 0.575 0.527914 0.5
225 1 0.6 0.479941 0.5
226 1 0.625 0.527914 0.5
227 1 0.65 0.479941 0.5
228 1 0.675 0.527914 0.5
229 1 0.7 0.479941 0.5
230 1 0.725 0.527914 0.5
231 1 0.75 0.479941 0.5
232 1 0.775 0.527914 0.5
233 1 0.8 0.479941 0.5
234 1 0.825 0.527914 0.5
235 1 0.85 0.479941 0.5
236 1 0.875 0.527914 0.5
237 1 0.9 0.479941 0.5
238 1 0.925 0.527914 0.5
239 1 0.95 0.479941 0.5
240 1 0.975 0.527914 0.5
261 1 0.5 0.575886 0.5
262 1 0.525 0.623856 0.5
263 1 0.55 0.575886 0.5
264 1 0.575 0.623856 0.5
265 1 0.6 0.575886 0.5
266 1 0.625 0.623856 0.5
267 1 0.65 0.575886 0.5
268 1 0.675 0.623856 0.5
269 1 0.7 0.575886 0.5
270 1 0.725 0.623856 0.5
271 1 0.75 0.575886 0.5
272 1 0.775 0.623856 0.5
273 1 0.8 0.575886 0.5
274 1 0.825 0.623856 0.5
275 1 0.85 0.575886 0.5
276 1 0.875 0.623856 0.5
277 1 0.9 0.575886 0.5
278 1 0.925 0.623856 0.5
279 1 0.95 0.575886 0.5
280 1 0.975 0.623856 0.5
301 1 0.5 0.671832 0.5
302 1 0.525 0.719804 0.5
303 1 0.55 0.671832 0.5
304 1 0.575 0.719804 0.5
305 1 0.6 0.671832 0.5
306 1 0.625 0.719804 0.5
307 1 0.65 0.671832 0.5
308 1 0.675 0.719804 0.5
309 1 0.7 0.671832 0.5
310 1 0.725 0.719804 0.5
311 1 0.75 0.671832 0.5
312 1 0.775 0.719804 0.5
313 1 0.8 0.671832 0.5
314 1 0.825 0.719804 0.5
315 1 0.85 0.671832 0.5
316 1 0.875 0.719804 0.5
317 1 0.9 0.671832 0.5
318 1 0.925 0.719804 0.5
319 1 0.95 0.671832 0.5
320 1 0.975 0.719804 0.5
341 1 0.5 0.767769 0.5
342 1 0.525 0.815736 0.5
343 1 0.55 0.767769 0.5
344 1 0.575 0.815736 0.5
345 1 0.6 0.767769 0.5
346 1 0.625 0.815736 0.5
347 1 0.65 0.767769 0.5
348 1 0.675 0.815736 0.5
349 1 0.7 0.767769 0.5
350 1 0.725 0.815736 0.5
351 1 0.75 0.767769 0.5
352 1 0.775 0.815736 0.5
353 1 0.8 0.767769 0.5
354 1 0.825 0.815736 0.5
355 1 0.85 0.767769 0.5
356 1 0.875 0.815736 0.5
357 1 0.9 0.767769 0.5
358 1 0.925 0.815736 0.5
359 1 0.95 0.767769 0.5
360 1 0.975 0.815736 0.5
381 3 0.5 0.86368 0.5
382 3 0.525 0.911633 0.5
383 3 0.55 0.86368 0.5
384 3 0.575 0.911633 0.5
385 3 0.6 0.86368 0.5
386 3 0.625 0.911633 0.5
387 3 0.65 0.86368 0.5
388 3 0.675 0.911633 0.5
389 3 0.7 0.86368 0.5
390 3 0.725 0.911633 0.5
391 3 0.75 0.86368 0.5
392 3 0.775 0.911633 0.5
393 1 0.8 0.86368 0.5
394 1 0.825 0.911633 0.5
395 1 0.85 0.86368 0.5
396 1 0.875 0.911633 0.5
397 1 0.9 0.86368 0.5
398 1 0.925 0.911633 0.5
399 1 0.95 0.86368 0.5
400 1 0.975 0.911633 0.5
411 3 0.5 0.959783 0.5
412 3 0.599451 0.999902 0.5
413 3 0.6 0.959783 0.5
414 3 0.65 0.959783 0.5
415 3 0.7 0.959783 0.5
416 3 0.75 0.959783 0.5
417 1 0.8 0.959783 0.5
418 1 0.85 0.959783 0.5
419 1 0.9 0.959783 0.5
420 1 0.95 0.959783 0.5
ITEM: TIMESTEP
150
ITEM: NUMBER OF ATOMS
420
ITEM: BOX BOUNDS pp ss pp
0.0000000000000000e+00 2.2653923264628304e+01
2.1918578738840608e-01 2.0366091450201317e+01
-2.8317404080785380e-01 2.8317404080785380e-01
ITEM: ATOMS id type xs ys zs
1 2 0 9.73986e-05 0.5
2 2 0.025 0.0478539 0.5
3 2 0.05 9.73986e-05 0.5
4 2 0.075 0.0478539 0.5
5 2 0.1 9.73986e-05 0.5
6 2 0.125 0.0478539 0.5
7 2 0.15 9.73986e-05 0.5
8 2 0.175 0.0478539 0.5
9 2 0.2 9.73986e-05 0.5
10 2 0.225 0.0478539 0.5
11 2 0.25 9.73986e-05 0.5
12 2 0.275 0.0478539 0.5
13 2 0.3 9.73986e-05 0.5
14 2 0.325 0.0478539 0.5
15 2 0.35 9.73986e-05 0.5
16 2 0.375 0.0478539 0.5
17 2 0.4 9.73986e-05 0.5
18 2 0.425 0.0478539 0.5
19 2 0.45 9.73986e-05 0.5
20 2 0.475 0.0478539 0.5
41 2 3.57546e-18 0.0954146 0.5
42 1 0.0249993 0.142982 0.5
43 2 0.05 0.0954146 0.5
44 1 0.0749993 0.142982 0.5
45 2 0.1 0.0954146 0.5
46 1 0.124999 0.142982 0.5
47 2 0.15 0.0954146 0.5
48 1 0.174999 0.142982 0.5
49 2 0.2 0.0954146 0.5
50 1 0.225 0.142982 0.5
51 2 0.25 0.0954146 0.5
52 1 0.275 0.142983 0.5
53 2 0.3 0.0954146 0.5
54 1 0.325 0.142983 0.5
55 2 0.35 0.0954146 0.5
56 1 0.375 0.142983 0.5
57 2 0.4 0.0954146 0.5
58 1 0.425 0.142983 0.5
59 2 0.45 0.0954146 0.5
60 1 0.475 0.142984 0.5
81 1 -1.35943e-06 0.19055 0.5
82 1 0.0249978 0.238117 0.5
83 1 0.0499985 0.19055 0.5
84 1 0.0749976 0.238117 0.5
85 1 0.0999985 0.190549 0.5
86 1 0.124998 0.238117 0.5
87 1 0.149999 0.19055 0.5
88 1 0.174998 0.238117 0.5
89 1 0.199999 0.19055 0.5
90 1 0.224998 0.238117 0.5
91 1 0.249999 0.19055 0.5
92 1 0.274998 0.238118 0.5
93 1 0.299999 0.190551 0.5
94 1 0.324999 0.238119 0.5
95 1 0.349999 0.190551 0.5
96 1 0.374999 0.23812 0.5
97 1 0.4 0.190552 0.5
98 1 0.424999 0.238121 0.5
99 1 0.45 0.190552 0.5
100 1 0.475 0.238122 0.5
121 1 -2.86152e-06 0.285685 0.5
122 1 0.0249956 0.333252 0.5
123 1 0.0499966 0.285685 0.5
124 1 0.0749947 0.333251 0.5
125 1 0.0999962 0.285684 0.5
126 1 0.124994 0.333251 0.5
127 1 0.149996 0.285684 0.5
128 1 0.174994 0.333251 0.5
129 1 0.199996 0.285684 0.5
130 1 0.224994 0.333251 0.5
131 1 0.249997 0.285685 0.5
132 1 0.274995 0.333253 0.5
133 1 0.299997 0.285686 0.5
134 1 0.324996 0.333254 0.5
135 1 0.349998 0.285687 0.5
136 1 0.374997 0.333256 0.5
137 1 0.399999 0.285689 0.5
138 1 0.424998 0.333258 0.5
139 1 0.449999 0.28569 0.5
140 1 0.474998 0.33326 0.5
161 1 -5.37718e-06 0.380821 0.5
162 1 0.0249918 0.428387 0.5
163 1 0.0499932 0.380819 0.5
164 1 0.0749897 0.428385 0.5
165 1 0.099992 0.380818 0.5
166 1 0.124988 0.428384 0.5
167 1 0.149991 0.380817 0.5
168 1 0.174988 0.428383 0.5
169 1 0.199991 0.380817 0.5
170 1 0.224988 0.428383 0.5
171 1 0.249992 0.380818 0.5
172 1 0.27499 0.428384 0.5
173 1 0.299994 0.38082 0.5
174 1 0.324992 0.428387 0.5
175 1 0.349995 0.380822 0.5
176 1 0.374994 0.428391 0.5
177 1 0.399996 0.380825 0.5
178 1 0.424995 0.428395 0.5
179 1 0.449997 0.380828 0.5
180 1 0.474996 0.428398 0.5
201 1 -9.3299e-06 0.475956 0.5
202 1 0.0249861 0.523522 0.5
203 1 0.0499876 0.475953 0.5
204 1 0.0749819 0.523519 0.5
205 1 0.0999849 0.475951 0.5
206 1 0.124978 0.523515 0.5
207 1 0.149983 0.475949 0.5
208 1 0.174976 0.523512 0.5
209 1 0.199983 0.475947 0.5
210 1 0.224976 0.523511 0.5
211 1 0.249984 0.475948 0.5
212 1 0.274978 0.523512 0.5
213 1 0.299986 0.47595 0.5
214 1 0.324982 0.523516 0.5
215 1 0.349989 0.475955 0.5
216 1 0.374987 0.523523 0.5
217 1 0.399992 0.47596 0.5
218 1 0.42499 0.523531 0.5
219 1 0.449994 0.475966 0.5
220 1 0.474992 0.523538 0.5
241 1 -1.4622e-05 0.571092 0.5
242 1 0.0249788 0.618659 0.5
243 1 0.0499797 0.571088 0.5
244 1 0.0749711 0.618654 0.5
245 1 0.099974 0.571084 0.5
246 1 0.124964 0.618648 0.5
247 1 0.149969 0.571079 0.5
248 1 0.174958 0.618641 0.5
249 1 0.199967 0.571074 0.5
250 1 0.224955 0.618635 0.5
251 1 0.249967 0.571072 0.5
252 1 0.274956 0.618632 0.5
253 1 0.299971 0.571075 0.5
254 1 0.324962 0.618636 0.5
255 1 0.349977 0.571082 0.5
256 1 0.37497 0.618648 0.5
257 1 0.399983 0.571092 0.5
258 1 0.424978 0.618664 0.5
259 1 0.449987 0.571104 0.5
260 1 0.474981 0.61868 0.5
281 1 -2.05484e-05 0.666231 0.5
282 1 0.0249711 0.713799 0.5
283 1 0.0499701 0.666226 0.5
284 1 0.074959 0.713793 0.5
285 1 0.09996 0.666219 0.5
286 1 0.124946 0.713784 0.5
287 1 0.14995 0.66621 0.5
288 1 0.174934 0.713771 0.5
289 1 0.199943 0.6662 0.5
290 1 0.224923 0.713758 0.5
291 1 0.249939 0.666192 0.5
292 1 0.274918 0.713747 0.5
293 1 0.299941 0.66619 0.5
294 1 0.324919 0.713744 0.5
295 1 0.349949 0.666197 0.5
296 1 0.37493 0.713757 0.5
297 1 0.399961 0.666217 0.5
298 1 0.424948 0.71379 0.5
299 1 0.44997 0.666241 0.5
300 1 0.474957 0.713825 0.5
321 1 -2.59587e-05 0.761373 0.5
322 1 0.0249647 0.808944 0.5
323 1 0.0499608 0.761369 0.5
324 1 0.0749486 0.808938 0.5
325 1 0.0999456 0.76136 0.5
326 1 0.12493 0.808927 0.5
327 1 0.149929 0.761347 0.5
328 1 0.174909 0.80891 0.5
329 1 0.199913 0.761331 0.5
330 1 0.224886 0.808889 0.5
331 1 0.249898 0.761313 0.5
332 1 0.274864 0.808867 0.5
333 1 0.299888 0.761299 0.5
334 1 0.324846 0.808848 0.5
335 1 0.349887 0.761296 0.5
336 1 0.374838 0.808845 0.5
337 1 0.399901 0.761317 0.5
338 1 0.424854 0.808877 0.5
339 1 0.449928 0.761374 0.5
340 1 0.474899 0.80898 0.5
361 1 -2.98654e-05 0.856519 0.5
362 1 0.0249612 0.904095 0.5
363 1 0.0499543 0.856516 0.5
364 1 0.0749439 0.90409 0.5
365 1 0.0999354 0.856508 0.5
366 1 0.124923 0.90408 0.5
367 1 0.149913 0.856494 0.5
368 1 0.174896 0.904064 0.5
369 1 0.199886 0.856474 0.5
370 1 0.224861 0.904042 0.5
371 1 0.249854 0.856449 0.5
372 1 0.274816 0.904016 0.5
373 1 0.299819 0.856422 0.5
374 1 0.324758 0.903987 0.5
375 1 0.349783 0.856399 0.5
376 1 0.374688 0.903961 0.5
377 1 0.399758 0.856393 0.5
378 1 0.424611 0.903954 0.5
379 3 0.449765 0.856437 0.5
380 3 0.474556 0.904007 0.5
401 1 -3.23314e-05 0.951871 0.5
402 1 0.049953 0.951871 0.5
403 1 0.0999352 0.951865 0.5
404 1 0.149912 0.951854 0.5
405 1 0.19988 0.951837 0.5
406 1 0.249835 0.951816 0.5
407 1 0.299771 0.951792 0.5
408 1 0.349678 0.951769 0.5
409 1 0.399539 0.951755 0.5
410 3 0.449323 0.951775 0.5
341 1 0.499935 0.761421 0.5
381 3 0.499852 0.856637 0.5
411 3 0.499033 0.951932 0.5
21 2 0.5 9.73986e-05 0.5
22 2 0.525 0.0478539 0.5
23 2 0.55 9.73986e-05 0.5
24 2 0.575 0.0478539 0.5
25 2 0.6 9.73986e-05 0.5
26 2 0.625 0.0478539 0.5
27 2 0.65 9.73986e-05 0.5
28 2 0.675 0.0478539 0.5
29 2 0.7 9.73986e-05 0.5
30 2 0.725 0.0478539 0.5
31 2 0.75 9.73986e-05 0.5
32 2 0.775 0.0478539 0.5
33 2 0.8 9.73986e-05 0.5
34 2 0.825 0.0478539 0.5
35 2 0.85 9.73986e-05 0.5
36 2 0.875 0.0478539 0.5
37 2 0.9 9.73986e-05 0.5
38 2 0.925 0.0478539 0.5
39 2 0.95 9.73986e-05 0.5
40 2 0.975 0.0478539 0.5
61 2 0.5 0.0954146 0.5
62 1 0.525 0.142984 0.5
63 2 0.55 0.0954146 0.5
64 1 0.575 0.142984 0.5
65 2 0.6 0.0954146 0.5
66 1 0.625 0.142984 0.5
67 2 0.65 0.0954146 0.5
68 1 0.675 0.142984 0.5
69 2 0.7 0.0954146 0.5
70 1 0.725 0.142984 0.5
71 2 0.75 0.0954146 0.5
72 1 0.775 0.142984 0.5
73 2 0.8 0.0954146 0.5
74 1 0.824999 0.142983 0.5
75 2 0.85 0.0954146 0.5
76 1 0.874999 0.142983 0.5
77 2 0.9 0.0954146 0.5
78 1 0.924999 0.142983 0.5
79 2 0.95 0.0954146 0.5
80 1 0.974999 0.142982 0.5
101 1 0.5 0.190553 0.5
102 1 0.525 0.238122 0.5
103 1 0.55 0.190553 0.5
104 1 0.575 0.238123 0.5
105 1 0.6 0.190553 0.5
106 1 0.625 0.238123 0.5
107 1 0.65 0.190553 0.5
108 1 0.674999 0.238123 0.5
109 1 0.7 0.190553 0.5
110 1 0.724999 0.238123 0.5
111 1 0.749999 0.190553 0.5
112 1 0.774999 0.238122 0.5
113 1 0.799999 0.190552 0.5
114 1 0.824999 0.238121 0.5
115 1 0.849999 0.190552 0.5
116 1 0.874999 0.23812 0.5
117 1 0.899999 0.190551 0.5
118 1 0.924998 0.238119 0.5
119 1 0.949999 0.190551 0.5
120 1 0.974998 0.238118 0.5
141 1 0.499999 0.285691 0.5
142 1 0.524999 0.333261 0.5
143 1 0.549999 0.285692 0.5
144 1 0.574999 0.333262 0.5
145 1 0.599999 0.285693 0.5
146 1 0.624998 0.333263 0.5
147 1 0.649999 0.285693 0.5
148 1 0.674998 0.333263 0.5
149 1 0.699999 0.285692 0.5
150 1 0.724998 0.333262 0.5
151 1 0.749999 0.285692 0.5
152 1 0.774998 0.33326 0.5
153 1 0.799999 0.285691 0.5
154 1 0.824998 0.333259 0.5
155 1 0.849998 0.285689 0.5
156 1 0.874998 0.333257 0.5
157 1 0.899998 0.285688 0.5
158 1 0.924997 0.333255 0.5
159 1 0.949998 0.285687 0.5
160 1 0.974996 0.333254 0.5
181 1 0.499998 0.38083 0.5
182 1 0.524996 0.428401 0.5
183 1 0.549998 0.380832 0.5
184 1 0.574996 0.428403 0.5
185 1 0.599997 0.380833 0.5
186 1 0.624996 0.428404 0.5
187 1 0.649997 0.380833 0.5
188 1 0.674995 0.428403 0.5
189 1 0.699997 0.380832 0.5
190 1 0.724995 0.428401 0.5
191 1 0.749997 0.380831 0.5
192 1 0.774996 0.428399 0.5
193 1 0.799997 0.380829 0.5
194 1 0.824996 0.428396 0.5
195 1 0.849997 0.380827 0.5
196 1 0.874996 0.428394 0.5
197 1 0.899997 0.380824 0.5
198 1 0.924995 0.428391 0.5
199 1 0.949996 0.380823 0.5
200 1 0.974994 0.428389 0.5
221 1 0.499995 0.475971 0.5
222 1 0.524992 0.523544 0.5
223 1 0.549994 0.475974 0.5
224 1 0.57499 0.523548 0.5
225 1 0.599993 0.475976 0.5
226 1 0.624989 0.523548 0.5
227 1 0.649993 0.475975 0.5
228 1 0.67499 0.523546 0.5
229 1 0.699993 0.475973 0.5
230 1 0.724991 0.523541 0.5
231 1 0.749994 0.47597 0.5
232 1 0.774993 0.523537 0.5
233 1 0.799995 0.475966 0.5
234 1 0.824995 0.523533 0.5
235 1 0.849996 0.475963 0.5
236 1 0.874995 0.52353 0.5
237 1 0.899995 0.475961 0.5
238 1 0.924993 0.523528 0.5
239 1 0.949993 0.475958 0.5
240 1 0.97499 0.523525 0.5
261 1 0.499988 0.571114 0.5
262 1 0.524981 0.618693 0.5
263 1 0.549987 0.571121 0.5
264 1 0.574979 0.618699 0.5
265 1 0.599985 0.571123 0.5
266 1 0.624979 0.618697 0.5
267 1 0.649985 0.57112 0.5
268 1 0.674981 0.618689 0.5
269 1 0.699987 0.571115 0.5
270 1 0.724987 0.618679 0.5
271 1 0.74999 0.571108 0.5
272 1 0.774992 0.618672 0.5
273 1 0.799993 0.571103 0.5
274 1 0.824994 0.618668 0.5
275 1 0.849994 0.571099 0.5
276 1 0.874994 0.618666 0.5
277 1 0.899993 0.571097 0.5
278 1 0.924991 0.618664 0.5
279 1 0.94999 0.571095 0.5
280 1 0.974986 0.618662 0.5
301 1 0.499973 0.666263 0.5
302 1 0.524959 0.713853 0.5
303 1 0.549971 0.666276 0.5
304 1 0.574958 0.713862 0.5
305 1 0.59997 0.666278 0.5
306 1 0.624964 0.71385 0.5
307 1 0.649974 0.666268 0.5
308 1 0.674978 0.713827 0.5
309 1 0.699982 0.666253 0.5
310 1 0.724992 0.713809 0.5
311 1 0.749991 0.666241 0.5
312 1 0.774996 0.713805 0.5
313 1 0.799994 0.666237 0.5
314 1 0.824997 0.713803 0.5
315 1 0.849995 0.666235 0.5
316 1 0.874995 0.713802 0.5
317 1 0.899992 0.666234 0.5
318 1 0.92499 0.713803 0.5
319 1 0.949987 0.666233 0.5
320 1 0.974982 0.713802 0.5
420 1 0.949981 0.951869 0.5
342 1 0.524898 0.809031 0.5
343 1 0.549939 0.76145 0.5
344 1 0.574923 0.809038 0.5
345 1 0.599949 0.76144 0.5
346 1 0.624969 0.808986 0.5
347 1 0.649973 0.761405 0.5
348 1 0.675022 0.808931 0.5
349 1 0.699999 0.761375 0.5
350 1 0.72501 0.80895 0.5
351 1 0.75 0.761375 0.5
352 1 0.775008 0.808942 0.5
353 1 0.800001 0.761371 0.5
354 1 0.825004 0.808939 0.5
355 1 0.849999 0.761371 0.5
356 1 0.874998 0.808941 0.5
357 1 0.899993 0.761372 0.5
358 1 0.92499 0.808944 0.5
359 1 0.949985 0.761373 0.5
360 1 0.974978 0.808946 0.5
419 1 0.899995 0.951864 0.5
382 3 0.524781 0.904456 0.5
383 3 0.549851 0.856629 0.5
384 3 0.574877 0.904198 0.5
385 3 0.599961 0.856574 0.5
386 3 0.62524 0.903931 0.5
387 3 0.650082 0.856462 0.5
388 3 0.675053 0.904186 0.5
389 3 0.70003 0.856541 0.5
390 3 0.725039 0.90411 0.5
391 3 0.750022 0.856518 0.5
392 3 0.775029 0.904086 0.5
393 1 0.800014 0.856509 0.5
394 1 0.825015 0.904083 0.5
395 1 0.850005 0.85651 0.5
396 1 0.875002 0.904086 0.5
397 1 0.899995 0.856513 0.5
398 1 0.924989 0.904091 0.5
399 1 0.949984 0.856517 0.5
400 1 0.974976 0.904094 0.5
418 1 0.85001 0.95186 0.5
412 3 0.598382 1.00633 0.5
413 3 0.600426 0.951302 0.5
414 3 0.650013 0.952182 0.5
415 3 0.700053 0.951921 0.5
416 3 0.750047 0.95187 0.5
417 1 0.800027 0.95186 0.5
ITEM: TIMESTEP
182
ITEM: NUMBER OF ATOMS
420
ITEM: BOX BOUNDS pp ss pp
0.0000000000000000e+00 2.2653923264628304e+01
2.1918578738840608e-01 2.0495632152552865e+01
-2.8317404080785380e-01 2.8317404080785380e-01
ITEM: ATOMS id type xs ys zs
1 2 0 9.67763e-05 0.5
2 2 0.025 0.0475482 0.5
3 2 0.05 9.67763e-05 0.5
4 2 0.075 0.0475482 0.5
5 2 0.1 9.67763e-05 0.5
6 2 0.125 0.0475482 0.5
7 2 0.15 9.67763e-05 0.5
8 2 0.175 0.0475482 0.5
9 2 0.2 9.67763e-05 0.5
10 2 0.225 0.0475482 0.5
11 2 0.25 9.67763e-05 0.5
12 2 0.275 0.0475482 0.5
13 2 0.3 9.67763e-05 0.5
14 2 0.325 0.0475482 0.5
15 2 0.35 9.67763e-05 0.5
16 2 0.375 0.0475482 0.5
17 2 0.4 9.67763e-05 0.5
18 2 0.425 0.0475482 0.5
19 2 0.45 9.67763e-05 0.5
20 2 0.475 0.0475482 0.5
41 2 3.57546e-18 0.094805 0.5
42 1 0.0249981 0.142068 0.5
43 2 0.05 0.094805 0.5
44 1 0.0749984 0.142068 0.5
45 2 0.1 0.094805 0.5
46 1 0.124999 0.142068 0.5
47 2 0.15 0.094805 0.5
48 1 0.174999 0.142068 0.5
49 2 0.2 0.094805 0.5
50 1 0.225 0.142068 0.5
51 2 0.25 0.094805 0.5
52 1 0.275 0.142069 0.5
53 2 0.3 0.094805 0.5
54 1 0.325 0.142069 0.5
55 2 0.35 0.094805 0.5
56 1 0.375001 0.142069 0.5
57 2 0.4 0.094805 0.5
58 1 0.425001 0.14207 0.5
59 2 0.45 0.094805 0.5
60 1 0.475 0.14207 0.5
411 3 0.498994 0.945864 0.5
82 1 0.0249944 0.236594 0.5
83 1 0.0499965 0.189331 0.5
84 1 0.074995 0.236593 0.5
85 1 0.0999971 0.189331 0.5
86 1 0.124996 0.236593 0.5
87 1 0.149998 0.189331 0.5
88 1 0.174997 0.236593 0.5
89 1 0.199999 0.189331 0.5
90 1 0.224998 0.236594 0.5
91 1 0.249999 0.189331 0.5
92 1 0.274999 0.236595 0.5
93 1 0.3 0.189332 0.5
94 1 0.325 0.236596 0.5
95 1 0.35 0.189333 0.5
96 1 0.375 0.236598 0.5
97 1 0.400001 0.189334 0.5
98 1 0.425 0.236599 0.5
99 1 0.450001 0.189335 0.5
100 1 0.475 0.236601 0.5
381 3 0.499832 0.851179 0.5
122 1 0.0249898 0.331119 0.5
123 1 0.0499925 0.283856 0.5
124 1 0.0749902 0.331117 0.5
125 1 0.0999933 0.283855 0.5
126 1 0.124991 0.331116 0.5
127 1 0.149994 0.283855 0.5
128 1 0.174992 0.331116 0.5
129 1 0.199996 0.283855 0.5
130 1 0.224994 0.331118 0.5
131 1 0.249997 0.283857 0.5
132 1 0.274996 0.33112 0.5
133 1 0.299998 0.283859 0.5
134 1 0.324997 0.331122 0.5
135 1 0.349999 0.283861 0.5
136 1 0.374999 0.331126 0.5
137 1 0.4 0.283863 0.5
138 1 0.424999 0.331129 0.5
139 1 0.45 0.283865 0.5
140 1 0.474999 0.331132 0.5
341 1 0.499923 0.75657 0.5
162 1 0.0249834 0.425643 0.5
163 1 0.0499868 0.37838 0.5
164 1 0.0749829 0.42564 0.5
165 1 0.0999871 0.378378 0.5
166 1 0.124983 0.425638 0.5
167 1 0.149988 0.378377 0.5
168 1 0.174984 0.425637 0.5
169 1 0.19999 0.378378 0.5
170 1 0.224986 0.425639 0.5
171 1 0.249992 0.37838 0.5
172 1 0.274989 0.425642 0.5
173 1 0.299994 0.378383 0.5
174 1 0.324992 0.425646 0.5
175 1 0.349996 0.378387 0.5
176 1 0.374995 0.425652 0.5
177 1 0.399998 0.378391 0.5
178 1 0.424996 0.425658 0.5
179 1 0.449998 0.378396 0.5
180 1 0.474996 0.425664 0.5
410 3 0.449284 0.945698 0.5
202 1 0.0249751 0.520167 0.5
203 1 0.0499787 0.472903 0.5
204 1 0.0749725 0.520162 0.5
205 1 0.0999777 0.472899 0.5
206 1 0.124971 0.520158 0.5
207 1 0.149978 0.472897 0.5
208 1 0.17497 0.520155 0.5
209 1 0.199979 0.472897 0.5
210 1 0.224972 0.520155 0.5
211 1 0.249982 0.472899 0.5
212 1 0.274976 0.520159 0.5
213 1 0.299986 0.472904 0.5
214 1 0.324981 0.520166 0.5
215 1 0.349989 0.47291 0.5
216 1 0.374986 0.520176 0.5
217 1 0.399992 0.472919 0.5
218 1 0.424989 0.520187 0.5
219 1 0.449994 0.472927 0.5
220 1 0.47499 0.520198 0.5
409 1 0.399501 0.94567 0.5
242 1 0.0249656 0.614693 0.5
243 1 0.0499683 0.567426 0.5
244 1 0.0749593 0.614686 0.5
245 1 0.0999642 0.567421 0.5
246 1 0.124953 0.614678 0.5
247 1 0.149961 0.567416 0.5
248 1 0.174949 0.614672 0.5
249 1 0.19996 0.567412 0.5
250 1 0.224947 0.614668 0.5
251 1 0.249963 0.567412 0.5
252 1 0.27495 0.614668 0.5
253 1 0.299968 0.567418 0.5
254 1 0.324957 0.614676 0.5
255 1 0.349975 0.567428 0.5
256 1 0.374966 0.614693 0.5
257 1 0.399981 0.567443 0.5
258 1 0.424974 0.614713 0.5
259 1 0.449984 0.567459 0.5
260 1 0.474977 0.614734 0.5
408 1 0.349643 0.945678 0.5
282 1 0.0249567 0.709222 0.5
283 1 0.0499566 0.661953 0.5
284 1 0.0749451 0.709214 0.5
285 1 0.0999476 0.661944 0.5
286 1 0.124933 0.709203 0.5
287 1 0.149939 0.661935 0.5
288 1 0.174921 0.709191 0.5
289 1 0.199932 0.661926 0.5
290 1 0.224911 0.709179 0.5
291 1 0.24993 0.661921 0.5
292 1 0.274906 0.709172 0.5
293 1 0.299933 0.661922 0.5
294 1 0.324908 0.709174 0.5
295 1 0.349942 0.661934 0.5
296 1 0.37492 0.709193 0.5
297 1 0.399955 0.66196 0.5
298 1 0.424938 0.709232 0.5
299 1 0.449963 0.661989 0.5
300 1 0.474948 0.709274 0.5
407 1 0.299739 0.945696 0.5
322 1 0.0249506 0.803757 0.5
323 1 0.0499462 0.756485 0.5
324 1 0.0749336 0.803748 0.5
325 1 0.0999309 0.756474 0.5
326 1 0.124914 0.803736 0.5
327 1 0.149914 0.756461 0.5
328 1 0.174892 0.80372 0.5
329 1 0.199898 0.756446 0.5
330 1 0.224868 0.803701 0.5
331 1 0.249883 0.756431 0.5
332 1 0.274845 0.803682 0.5
333 1 0.299873 0.756421 0.5
334 1 0.324826 0.803668 0.5
335 1 0.349873 0.756423 0.5
336 1 0.374819 0.803671 0.5
337 1 0.399888 0.756452 0.5
338 1 0.424835 0.803711 0.5
339 1 0.449915 0.756516 0.5
340 1 0.474882 0.803823 0.5
406 1 0.249807 0.945717 0.5
362 1 0.0249492 0.898299 0.5
363 1 0.0499402 0.851023 0.5
364 1 0.0749293 0.898292 0.5
365 1 0.0999196 0.851013 0.5
366 1 0.124905 0.898281 0.5
367 1 0.149895 0.850999 0.5
368 1 0.174875 0.898266 0.5
369 1 0.199866 0.85098 0.5
370 1 0.224837 0.898246 0.5
371 1 0.249832 0.850958 0.5
372 1 0.274789 0.898223 0.5
373 1 0.299795 0.850935 0.5
374 1 0.324729 0.898198 0.5
375 1 0.349758 0.850917 0.5
376 1 0.374657 0.898178 0.5
377 1 0.399733 0.850918 0.5
378 1 0.42458 0.898178 0.5
379 3 0.449742 0.850971 0.5
380 3 0.474527 0.898241 0.5
405 1 0.199856 0.945735 0.5
402 1 0.0499411 0.945769 0.5
403 1 0.0999195 0.945762 0.5
404 1 0.149892 0.94575 0.5
101 1 0.5 0.189335 0.5
141 1 0.499999 0.283867 0.5
181 1 0.499997 0.378399 0.5
221 1 0.499993 0.472934 0.5
261 1 0.499984 0.567472 0.5
301 1 0.499966 0.662017 0.5
21 2 0.5 9.67763e-05 0.5
22 2 0.525 0.0475482 0.5
23 2 0.55 9.67763e-05 0.5
24 2 0.575 0.0475482 0.5
25 2 0.6 9.67763e-05 0.5
26 2 0.625 0.0475482 0.5
27 2 0.65 9.67763e-05 0.5
28 2 0.675 0.0475482 0.5
29 2 0.7 9.67763e-05 0.5
30 2 0.725 0.0475482 0.5
31 2 0.75 9.67763e-05 0.5
32 2 0.775 0.0475482 0.5
33 2 0.8 9.67763e-05 0.5
34 2 0.825 0.0475482 0.5
35 2 0.85 9.67763e-05 0.5
36 2 0.875 0.0475482 0.5
37 2 0.9 9.67763e-05 0.5
38 2 0.925 0.0475482 0.5
39 2 0.95 9.67763e-05 0.5
40 2 0.975 0.0475482 0.5
61 2 0.5 0.094805 0.5
62 1 0.525 0.14207 0.5
63 2 0.55 0.094805 0.5
64 1 0.575 0.142071 0.5
65 2 0.6 0.094805 0.5
66 1 0.624999 0.142071 0.5
67 2 0.65 0.094805 0.5
68 1 0.674999 0.142071 0.5
69 2 0.7 0.094805 0.5
70 1 0.724999 0.14207 0.5
71 2 0.75 0.094805 0.5
72 1 0.774998 0.14207 0.5
73 2 0.8 0.094805 0.5
74 1 0.824998 0.14207 0.5
75 2 0.85 0.094805 0.5
76 1 0.874998 0.142069 0.5
77 2 0.9 0.094805 0.5
78 1 0.924998 0.142069 0.5
79 2 0.95 0.094805 0.5
80 1 0.974998 0.142068 0.5
417 1 0.800026 0.945785 0.5
102 1 0.525 0.236602 0.5
103 1 0.55 0.189336 0.5
104 1 0.574999 0.236603 0.5
105 1 0.599999 0.189336 0.5
106 1 0.624998 0.236603 0.5
107 1 0.649998 0.189336 0.5
108 1 0.674997 0.236603 0.5
109 1 0.699998 0.189336 0.5
110 1 0.724996 0.236602 0.5
111 1 0.749997 0.189335 0.5
112 1 0.774995 0.236601 0.5
113 1 0.799996 0.189335 0.5
114 1 0.824994 0.236599 0.5
115 1 0.849996 0.189334 0.5
116 1 0.874994 0.236598 0.5
117 1 0.899996 0.189333 0.5
118 1 0.924994 0.236596 0.5
119 1 0.949996 0.189332 0.5
120 1 0.974994 0.236595 0.5
416 3 0.750046 0.945801 0.5
142 1 0.524998 0.331134 0.5
143 1 0.549999 0.283868 0.5
144 1 0.574997 0.331136 0.5
145 1 0.599997 0.283869 0.5
146 1 0.624995 0.331136 0.5
147 1 0.649996 0.283869 0.5
148 1 0.674994 0.331136 0.5
149 1 0.699995 0.283868 0.5
150 1 0.724992 0.331134 0.5
151 1 0.749994 0.283867 0.5
152 1 0.774991 0.331132 0.5
153 1 0.799993 0.283865 0.5
154 1 0.82499 0.33113 0.5
155 1 0.849992 0.283863 0.5