ITEM: TIMESTEP
0
ITEM: NUMBER OF ATOMS
420
ITEM: BOX BOUNDS pp ss pp
0.0000000000000000e+00 2.2653923264628304e+01
2.1918578738840608e-01 2.0401755459270927e+01
-2.8317404080785380e-01 2.8317404080785380e-01
ITEM: ATOMS id type xs ys zs
1 2 0 9.72265e-05 0.5
2 2 0.025 0.0477693 0.5
3 2 0.05 9.72265e-05 0.5
4 2 0.075 0.0477693 0.5
5 2 0.1 9.72265e-05 0.5
6 2 0.125 0.0477693 0.5
7 2 0.15 9.72265e-05 0.5
8 2 0.175 0.0477693 0.5
9 2 0.2 9.72265e-05 0.5
10 2 0.225 0.0477693 0.5
11 2 0.25 9.72265e-05 0.5
12 2 0.275 0.0477693 0.5
13 2 0.3 9.72265e-05 0.5
14 2 0.325 0.0477693 0.5
15 2 0.35 9.72265e-05 0.5
16 2 0.375 0.0477693 0.5
17 2 0.4 9.72265e-05 0.5
18 2 0.425 0.0477693 0.5
19 2 0.45 9.72265e-05 0.5
20 2 0.475 0.0477693 0.5
41 2 3.57546e-18 0.095246 0.5
42 1 0.025 0.142714 0.5
43 2 0.05 0.095246 0.5
44 1 0.075 0.142714 0.5
45 2 0.1 0.095246 0.5
46 1 0.125 0.142714 0.5
47 2 0.15 0.095246 0.5
48 1 0.175 0.142714 0.5
49 2 0.2 0.095246 0.5
50 1 0.225 0.142714 0.5
51 2 0.25 0.095246 0.5
52 1 0.275 0.142714 0.5
53 2 0.3 0.095246 0.5
54 1 0.325 0.142714 0.5
55 2 0.35 0.095246 0.5
56 1 0.375 0.142714 0.5
57 2 0.4 0.095246 0.5
58 1 0.425 0.142714 0.5
59 2 0.45 0.095246 0.5
60 1 0.475 0.142714 0.5
81 1 2.74429e-20 0.190205 0.5
82 1 0.025 0.237693 0.5
83 1 0.05 0.190205 0.5
84 1 0.075 0.237693 0.5
85 1 0.1 0.190205 0.5
86 1 0.125 0.237693 0.5
87 1 0.15 0.190205 0.5
88 1 0.175 0.237693 0.5
89 1 0.2 0.190205 0.5
90 1 0.225 0.237693 0.5
91 1 0.25 0.190205 0.5
92 1 0.275 0.237693 0.5
93 1 0.3 0.190205 0.5
94 1 0.325 0.237693 0.5
95 1 0.35 0.190205 0.5
96 1 0.375 0.237693 0.5
97 1 0.4 0.190205 0.5
98 1 0.425 0.237693 0.5
99 1 0.45 0.190205 0.5
100 1 0.475 0.237693 0.5
121 1 0 0.285189 0.5
122 1 0.025 0.332689 0.5
123 1 0.05 0.285189 0.5
124 1 0.075 0.332689 0.5
125 1 0.1 0.285189 0.5
126 1 0.125 0.332689 0.5
127 1 0.15 0.285189 0.5
128 1 0.175 0.332689 0.5
129 1 0.2 0.285189 0.5
130 1 0.225 0.332689 0.5
131 1 0.25 0.285189 0.5
132 1 0.275 0.332689 0.5
133 1 0.3 0.285189 0.5
134 1 0.325 0.332689 0.5
135 1 0.35 0.285189 0.5
136 1 0.375 0.332689 0.5
137 1 0.4 0.285189 0.5
138 1 0.425 0.332689 0.5
139 1 0.45 0.285189 0.5
140 1 0.475 0.332689 0.5
161 1 0 0.380183 0.5
162 1 0.025 0.427678 0.5
163 1 0.05 0.380183 0.5
164 1 0.075 0.427678 0.5
165 1 0.1 0.380183 0.5
166 1 0.125 0.427678 0.5
167 1 0.15 0.380183 0.5
168 1 0.175 0.427678 0.5
169 1 0.2 0.380183 0.5
170 1 0.225 0.427678 0.5
171 1 0.25 0.380183 0.5
172 1 0.275 0.427678 0.5
173 1 0.3 0.380183 0.5
174 1 0.325 0.427678 0.5
175 1 0.35 0.380183 0.5
176 1 0.375 0.427678 0.5
177 1 0.4 0.380183 0.5
178 1 0.425 0.427678 0.5
179 1 0.45 0.380183 0.5
180 1 0.475 0.427678 0.5
201 1 0 0.475175 0.5
202 1 0.025 0.522672 0.5
203 1 0.05 0.475175 0.5
204 1 0.075 0.522672 0.5
205 1 0.1 0.475175 0.5
206 1 0.125 0.522672 0.5
207 1 0.15 0.475175 0.5
208 1 0.175 0.522672 0.5
209 1 0.2 0.475175 0.5
210 1 0.225 0.522672 0.5
211 1 0.25 0.475175 0.5
212 1 0.275 0.522672 0.5
213 1 0.3 0.475175 0.5
214 1 0.325 0.522672 0.5
215 1 0.35 0.475175 0.5
216 1 0.375 0.522672 0.5
217 1 0.4 0.475175 0.5
218 1 0.425 0.522672 0.5
219 1 0.45 0.475175 0.5
220 1 0.475 0.522672 0.5
241 1 0 0.570167 0.5
242 1 0.025 0.617661 0.5
243 1 0.05 0.570167 0.5
244 1 0.075 0.617661 0.5
245 1 0.1 0.570167 0.5
246 1 0.125 0.617661 0.5
247 1 0.15 0.570167 0.5
248 1 0.175 0.617661 0.5
249 1 0.2 0.570167 0.5
250 1 0.225 0.617661 0.5
251 1 0.25 0.570167 0.5
252 1 0.275 0.617661 0.5
253 1 0.3 0.570167 0.5
254 1 0.325 0.617661 0.5
255 1 0.35 0.570167 0.5
256 1 0.375 0.617661 0.5
257 1 0.4 0.570167 0.5
258 1 0.425 0.617661 0.5
259 1 0.45 0.570167 0.5
260 1 0.475 0.617661 0.5
281 1 2.18851e-18 0.665161 0.5
282 1 0.025 0.712656 0.5
283 1 0.05 0.665161 0.5
284 1 0.075 0.712656 0.5
285 1 0.1 0.665161 0.5
286 1 0.125 0.712656 0.5
287 1 0.15 0.665161 0.5
288 1 0.175 0.712656 0.5
289 1 0.2 0.665161 0.5
290 1 0.225 0.712656 0.5
291 1 0.25 0.665161 0.5
292 1 0.275 0.712656 0.5
293 1 0.3 0.665161 0.5
294 1 0.325 0.712656 0.5
295 1 0.35 0.665161 0.5
296 1 0.375 0.712656 0.5
297 1 0.4 0.665161 0.5
298 1 0.425 0.712656 0.5
299 1 0.45 0.665161 0.5
300 1 0.475 0.712656 0.5
321 1 0 0.760145 0.5
322 1 0.025 0.807635 0.5
323 1 0.05 0.760145 0.5
324 1 0.075 0.807635 0.5
325 1 0.1 0.760145 0.5
326 1 0.125 0.807635 0.5
327 1 0.15 0.760145 0.5
328 1 0.175 0.807635 0.5
329 1 0.2 0.760145 0.5
330 1 0.225 0.807635 0.5
331 1 0.25 0.760145 0.5
332 1 0.275 0.807635 0.5
333 1 0.3 0.760145 0.5
334 1 0.325 0.807635 0.5
335 1 0.35 0.760145 0.5
336 1 0.375 0.807635 0.5
337 1 0.4 0.760145 0.5
338 1 0.425 0.807635 0.5
339 1 0.45 0.760145 0.5
340 1 0.475 0.807635 0.5
361 1 5.74281e-19 0.855104 0.5
362 1 0.025 0.90258 0.5
363 1 0.05 0.855104 0.5
364 1 0.075 0.90258 0.5
365 1 0.1 0.855104 0.5
366 1 0.125 0.90258 0.5
367 1 0.15 0.855104 0.5
368 1 0.175 0.90258 0.5
369 1 0.2 0.855104 0.5
370 1 0.225 0.90258 0.5
371 1 0.25 0.855104 0.5
372 1 0.275 0.90258 0.5
373 1 0.3 0.855104 0.5
374 1 0.325 0.90258 0.5
375 1 0.35 0.855104 0.5
376 1 0.375 0.90258 0.5
377 1 0.4 0.855104 0.5
378 1 0.425 0.90258 0.5
379 3 0.45 0.855104 0.5
380 3 0.475 0.90258 0.5
401 1 3.60804e-19 0.950253 0.5
402 1 0.05 0.950253 0.5
403 1 0.1 0.950253 0.5
404 1 0.15 0.950253 0.5
405 1 0.2 0.950253 0.5
406 1 0.25 0.950253 0.5
407 1 0.3 0.950253 0.5
408 1 0.35 0.950253 0.5
409 1 0.4 0.950253 0.5
410 3 0.45 0.950253 0.5
21 2 0.5 9.72265e-05 0.5
22 2 0.525 0.0477693 0.5
23 2 0.55 9.72265e-05 0.5
24 2 0.575 0.0477693 0.5
25 2 0.6 9.72265e-05 0.5
26 2 0.625 0.0477693 0.5
27 2 0.65 9.72265e-05 0.5
28 2 0.675 0.0477693 0.5
29 2 0.7 9.72265e-05 0.5
30 2 0.725 0.0477693 0.5
31 2 0.75 9.72265e-05 0.5
32 2 0.775 0.0477693 0.5
33 2 0.8 9.72265e-05 0.5
34 2 0.825 0.0477693 0.5
35 2 0.85 9.72265e-05 0.5
36 2 0.875 0.0477693 0.5
37 2 0.9 9.72265e-05 0.5
38 2 0.925 0.0477693 0.5
39 2 0.95 9.72265e-05 0.5
40 2 0.975 0.0477693 0.5
61 2 0.5 0.095246 0.5
62 1 0.525 0.142714 0.5
63 2 0.55 0.095246 0.5
64 1 0.575 0.142714 0.5
65 2 0.6 0.095246 0.5
66 1 0.625 0.142714 0.5
67 2 0.65 0.095246 0.5
68 1 0.675 0.142714 0.5
69 2 0.7 0.095246 0.5
70 1 0.725 0.142714 0.5
71 2 0.75 0.095246 0.5
72 1 0.775 0.142714 0.5
73 2 0.8 0.095246 0.5
74 1 0.825 0.142714 0.5
75 2 0.85 0.095246 0.5
76 1 0.875 0.142714 0.5
77 2 0.9 0.095246 0.5
78 1 0.925 0.142714 0.5
79 2 0.95 0.095246 0.5
80 1 0.975 0.142714 0.5
101 1 0.5 0.190205 0.5
102 1 0.525 0.237693 0.5
103 1 0.55 0.190205 0.5
104 1 0.575 0.237693 0.5
105 1 0.6 0.190205 0.5
106 1 0.625 0.237693 0.5
107 1 0.65 0.190205 0.5
108 1 0.675 0.237693 0.5
109 1 0.7 0.190205 0.5
110 1 0.725 0.237693 0.5
111 1 0.75 0.190205 0.5
112 1 0.775 0.237693 0.5
113 1 0.8 0.190205 0.5
114 1 0.825 0.237693 0.5
115 1 0.85 0.190205 0.5
116 1 0.875 0.237693 0.5
117 1 0.9 0.190205 0.5
118 1 0.925 0.237693 0.5
119 1 0.95 0.190205 0.5
120 1 0.975 0.237693 0.5
141 1 0.5 0.285189 0.5
142 1 0.525 0.332689 0.5
143 1 0.55 0.285189 0.5
144 1 0.575 0.332689 0.5
145 1 0.6 0.285189 0.5
146 1 0.625 0.332689 0.5
147 1 0.65 0.285189 0.5
148 1 0.675 0.332689 0.5
149 1 0.7 0.285189 0.5
150 1 0.725 0.332689 0.5
151 1 0.75 0.285189 0.5
152 1 0.775 0.332689 0.5
153 1 0.8 0.285189 0.5
154 1 0.825 0.332689 0.5
155 1 0.85 0.285189 0.5
156 1 0.875 0.332689 0.5
157 1 0.9 0.285189 0.5
158 1 0.925 0.332689 0.5
159 1 0.95 0.285189 0.5
160 1 0.975 0.332689 0.5
181 1 0.5 0.380183 0.5
182 1 0.525 0.427678 0.5
183 1 0.55 0.380183 0.5
184 1 0.575 0.427678 0.5
185 1 0.6 0.380183 0.5
186 1 0.625 0.427678 0.5
187 1 0.65 0.380183 0.5
188 1 0.675 0.427678 0.5
189 1 0.7 0.380183 0.5
190 1 0.725 0.427678 0.5
191 1 0.75 0.380183 0.5
192 1 0.775 0.427678 0.5
193 1 0.8 0.380183 0.5
194 1 0.825 0.427678 0.5
195 1 0.85 0.380183 0.5
196 1 0.875 0.427678 0.5
197 1 0.9 0.380183 0.5
198 1 0.925 0.427678 0.5
199 1 0.95 0.380183 0.5
200 1 0.975 0.427678 0.5
221 1 0.5 0.475175 0.5
222 1 0.525 0.522672 0.5
223 1 0.55 0.475175 0.5
224 1 0.575 0.522672 0.5
225 1 0.6 0.475175 0.5
226 1 0.625 0.522672 0.5
227 1 0.65 0.475175 0.5
228 1 0.675 0.522672 0.5
229 1 0.7 0.475175 0.5
230 1 0.725 0.522672 0.5
231 1 0.75 0.475175 0.5
232 1 0.775 0.522672 0.5
233 1 0.8 0.475175 0.5
234 1 0.825 0.522672 0.5
235 1 0.85 0.475175 0.5
236 1 0.875 0.522672 0.5
237 1 0.9 0.475175 0.5
238 1 0.925 0.522672 0.5
239 1 0.95 0.475175 0.5
240 1 0.975 0.522672 0.5
261 1 0.5 0.570167 0.5
262 1 0.525 0.617661 0.5
263 1 0.55 0.570167 0.5
264 1 0.575 0.617661 0.5
265 1 0.6 0.570167 0.5
266 1 0.625 0.617661 0.5
267 1 0.65 0.570167 0.5
268 1 0.675 0.617661 0.5
269 1 0.7 0.570167 0.5
270 1 0.725 0.617661 0.5
271 1 0.75 0.570167 0.5
272 1 0.775 0.617661 0.5
273 1 0.8 0.570167 0.5
274 1 0.825 0.617661 0.5
275 1 0.85 0.570167 0.5
276 1 0.875 0.617661 0.5
277 1 0.9 0.570167 0.5
278 1 0.925 0.617661 0.5
279 1 0.95 0.570167 0.5
280 1 0.975 0.617661 0.5
301 1 0.5 0.665161 0.5
302 1 0.525 0.712656 0.5
303 1 0.55 0.665161 0.5
304 1 0.575 0.712656 0.5
305 1 0.6 0.665161 0.5
306 1 0.625 0.712656 0.5
307 1 0.65 0.665161 0.5
308 1 0.675 0.712656 0.5
309 1 0.7 0.665161 0.5
310 1 0.725 0.712656 0.5
311 1 0.75 0.665161 0.5
312 1 0.775 0.712656 0.5
313 1 0.8 0.665161 0.5
314 1 0.825 0.712656 0.5
315 1 0.85 0.665161 0.5
316 1 0.875 0.712656 0.5
317 1 0.9 0.665161 0.5
318 1 0.925 0.712656 0.5
319 1 0.95 0.665161 0.5
320 1 0.975 0.712656 0.5
341 1 0.5 0.760145 0.5
342 1 0.525 0.807635 0.5
343 1 0.55 0.760145 0.5
344 1 0.575 0.807635 0.5
345 1 0.6 0.760145 0.5
346 1 0.625 0.807635 0.5
347 1 0.65 0.760145 0.5
348 1 0.675 0.807635 0.5
349 1 0.7 0.760145 0.5
350 1 0.725 0.807635 0.5
351 1 0.75 0.760145 0.5
352 1 0.775 0.807635 0.5
353 1 0.8 0.760145 0.5
354 1 0.825 0.807635 0.5
355 1 0.85 0.760145 0.5
356 1 0.875 0.807635 0.5
357 1 0.9 0.760145 0.5
358 1 0.925 0.807635 0.5
359 1 0.95 0.760145 0.5
360 1 0.975 0.807635 0.5
381 3 0.5 0.855104 0.5
382 3 0.525 0.90258 0.5
383 3 0.55 0.855104 0.5
384 3 0.575 0.90258 0.5
385 3 0.6 0.855104 0.5
386 3 0.625 0.90258 0.5
387 3 0.65 0.855104 0.5
388 3 0.675 0.90258 0.5
389 3 0.7 0.855104 0.5
390 3 0.725 0.90258 0.5
391 3 0.75 0.855104 0.5
392 3 0.775 0.90258 0.5
393 1 0.8 0.855104 0.5
394 1 0.825 0.90258 0.5
395 1 0.85 0.855104 0.5
396 1 0.875 0.90258 0.5
397 1 0.9 0.855104 0.5
398 1 0.925 0.90258 0.5
399 1 0.95 0.855104 0.5
400 1 0.975 0.90258 0.5
411 3 0.5 0.950253 0.5
412 3 0.611813 0.999903 0.5
413 3 0.6 0.950253 0.5
414 3 0.65 0.950253 0.5
415 3 0.7 0.950253 0.5
416 3 0.75 0.950253 0.5
417 1 0.8 0.950253 0.5
418 1 0.85 0.950253 0.5
419 1 0.9 0.950253 0.5
420 1 0.95 0.950253 0.5
ITEM: TIMESTEP
150
ITEM: NUMBER OF ATOMS
420
ITEM: BOX BOUNDS pp ss pp
0.0000000000000000e+00 2.2653923264628304e+01
2.1918578738840608e-01 2.0401755459270927e+01
-2.8317404080785380e-01 2.8317404080785380e-01
ITEM: ATOMS id type xs ys zs
1 2 0 9.72265e-05 0.5
2 2 0.025 0.0477693 0.5
3 2 0.05 9.72265e-05 0.5
4 2 0.075 0.0477693 0.5
5 2 0.1 9.72265e-05 0.5
6 2 0.125 0.0477693 0.5
7 2 0.15 9.72265e-05 0.5
8 2 0.175 0.0477693 0.5
9 2 0.2 9.72265e-05 0.5
10 2 0.225 0.0477693 0.5
11 2 0.25 9.72265e-05 0.5
12 2 0.275 0.0477693 0.5
13 2 0.3 9.72265e-05 0.5
14 2 0.325 0.0477693 0.5
15 2 0.35 9.72265e-05 0.5
16 2 0.375 0.0477693 0.5
17 2 0.4 9.72265e-05 0.5
18 2 0.425 0.0477693 0.5
19 2 0.45 9.72265e-05 0.5
20 2 0.475 0.0477693 0.5
41 2 3.57546e-18 0.095246 0.5
42 1 0.0249938 0.142734 0.5
43 2 0.05 0.095246 0.5
44 1 0.0749934 0.142734 0.5
45 2 0.1 0.095246 0.5
46 1 0.124994 0.142733 0.5
47 2 0.15 0.095246 0.5
48 1 0.174994 0.142732 0.5
49 2 0.2 0.095246 0.5
50 1 0.224995 0.142732 0.5
51 2 0.25 0.095246 0.5
52 1 0.274996 0.142732 0.5
53 2 0.3 0.095246 0.5
54 1 0.324997 0.142732 0.5
55 2 0.35 0.095246 0.5
56 1 0.374999 0.142732 0.5
57 2 0.4 0.095246 0.5
58 1 0.425 0.142732 0.5
59 2 0.45 0.095246 0.5
60 1 0.475001 0.142733 0.5
81 1 -1.14642e-05 0.190224 0.5
82 1 0.0249816 0.237713 0.5
83 1 0.0499874 0.190223 0.5
84 1 0.0749805 0.23771 0.5
85 1 0.0999871 0.190221 0.5
86 1 0.124981 0.237707 0.5
87 1 0.149988 0.190219 0.5
88 1 0.174982 0.237704 0.5
89 1 0.199989 0.190218 0.5
90 1 0.224984 0.237702 0.5
91 1 0.249991 0.190217 0.5
92 1 0.274987 0.2377 0.5
93 1 0.299993 0.190216 0.5
94 1 0.324991 0.2377 0.5
95 1 0.349996 0.190216 0.5
96 1 0.374995 0.237701 0.5
97 1 0.399998 0.190217 0.5
98 1 0.424998 0.237702 0.5
99 1 0.45 0.190218 0.5
100 1 0.475001 0.237704 0.5
121 1 -2.42455e-05 0.285205 0.5
122 1 0.0249663 0.332693 0.5
123 1 0.0499737 0.2852 0.5
124 1 0.0749647 0.332686 0.5
125 1 0.0999731 0.285195 0.5
126 1 0.124965 0.332679 0.5
127 1 0.149974 0.285191 0.5
128 1 0.174967 0.332673 0.5
129 1 0.199976 0.285187 0.5
130 1 0.22497 0.332668 0.5
131 1 0.24998 0.285184 0.5
132 1 0.274975 0.332665 0.5
133 1 0.299984 0.285183 0.5
134 1 0.324981 0.332664 0.5
135 1 0.349989 0.285183 0.5
136 1 0.374987 0.332665 0.5
137 1 0.399994 0.285185 0.5
138 1 0.424993 0.332668 0.5
139 1 0.449998 0.285187 0.5
140 1 0.474998 0.332673 0.5
161 1 -4.18546e-05 0.380188 0.5
162 1 0.0249451 0.427674 0.5
163 1 0.0499554 0.380179 0.5
164 1 0.0749433 0.427662 0.5
165 1 0.0999546 0.380169 0.5
166 1 0.124943 0.42765 0.5
167 1 0.149956 0.38016 0.5
168 1 0.174946 0.427638 0.5
169 1 0.199959 0.380152 0.5
170 1 0.22495 0.427629 0.5
171 1 0.249964 0.380147 0.5
172 1 0.274956 0.427623 0.5
173 1 0.29997 0.380144 0.5
174 1 0.324964 0.427621 0.5
175 1 0.349977 0.380144 0.5
176 1 0.374973 0.427623 0.5
177 1 0.399985 0.380147 0.5
178 1 0.424982 0.427629 0.5
179 1 0.449992 0.380153 0.5
180 1 0.474989 0.427638 0.5
201 1 -6.6414e-05 0.475173 0.5
202 1 0.0249173 0.522657 0.5
203 1 0.0499309 0.475158 0.5
204 1 0.0749158 0.522638 0.5
205 1 0.0999301 0.475142 0.5
206 1 0.124916 0.522618 0.5
207 1 0.149931 0.475127 0.5
208 1 0.174917 0.5226 0.5
209 1 0.199934 0.475113 0.5
210 1 0.224921 0.522585 0.5
211 1 0.24994 0.475103 0.5
212 1 0.274928 0.522575 0.5
213 1 0.299948 0.475098 0.5
214 1 0.324936 0.52257 0.5
215 1 0.349957 0.475097 0.5
216 1 0.374947 0.522572 0.5
217 1 0.399967 0.475102 0.5
218 1 0.424959 0.522582 0.5
219 1 0.449977 0.475112 0.5
220 1 0.47497 0.522597 0.5
241 1 -9.76329e-05 0.570159 0.5
242 1 0.0248853 0.617639 0.5
243 1 0.0499009 0.570136 0.5
244 1 0.0748849 0.617612 0.5
245 1 0.0999002 0.570113 0.5
246 1 0.124884 0.617585 0.5
247 1 0.1499 0.570091 0.5
248 1 0.174883 0.61756 0.5
249 1 0.199902 0.57007 0.5
250 1 0.224883 0.617537 0.5
251 1 0.249905 0.570054 0.5
252 1 0.274886 0.61752 0.5
253 1 0.299912 0.570044 0.5
254 1 0.324892 0.61751 0.5
255 1 0.349922 0.570041 0.5
256 1 0.374902 0.617511 0.5
257 1 0.399934 0.570047 0.5
258 1 0.424915 0.617522 0.5
259 1 0.449947 0.570062 0.5
260 1 0.47493 0.617546 0.5
281 1 -0.000131291 0.665143 0.5
282 1 0.0248555 0.712617 0.5
283 1 0.04987 0.665113 0.5
284 1 0.0748563 0.712585 0.5
285 1 0.099869 0.665084 0.5
286 1 0.124853 0.712553 0.5
287 1 0.149866 0.665054 0.5
288 1 0.174846 0.712521 0.5
289 1 0.199863 0.665026 0.5
290 1 0.224838 0.71249 0.5
291 1 0.24986 0.665001 0.5
292 1 0.27483 0.712463 0.5
293 1 0.29986 0.664982 0.5
294 1 0.324826 0.712443 0.5
295 1 0.349865 0.664974 0.5
296 1 0.374829 0.712438 0.5
297 1 0.399876 0.66498 0.5
298 1 0.424839 0.712452 0.5
299 1 0.449888 0.664998 0.5
300 1 0.474848 0.712476 0.5
321 1 -0.000158732 0.76012 0.5
322 1 0.0248371 0.807589 0.5
323 1 0.0498457 0.760087 0.5
324 1 0.0748386 0.807557 0.5
325 1 0.0998438 0.760055 0.5
326 1 0.124832 0.807525 0.5
327 1 0.149836 0.760022 0.5
328 1 0.174817 0.807491 0.5
329 1 0.199823 0.759988 0.5
330 1 0.224795 0.807455 0.5
331 1 0.249807 0.759954 0.5
332 1 0.274768 0.807417 0.5
333 1 0.299791 0.759923 0.5
334 1 0.32474 0.807383 0.5
335 1 0.34978 0.759902 0.5
336 1 0.374716 0.807359 0.5
337 1 0.399779 0.759901 0.5
338 1 0.424707 0.807365 0.5
339 1 0.449788 0.75993 0.5
340 1 0.474719 0.807425 0.5
361 1 -0.000169243 0.855089 0.5
362 1 0.024839 0.902559 0.5
363 1 0.049837 0.855058 0.5
364 1 0.0748398 0.902532 0.5
365 1 0.0998333 0.855028 0.5
366 1 0.12483 0.902504 0.5
367 1 0.14982 0.854997 0.5
368 1 0.174808 0.902475 0.5
369 1 0.199796 0.854962 0.5
370 1 0.224773 0.902441 0.5
371 1 0.249762 0.854925 0.5
372 1 0.274724 0.902403 0.5
373 1 0.299719 0.854884 0.5
374 1 0.324657 0.902362 0.5
375 1 0.34967 0.854846 0.5
376 1 0.374572 0.902322 0.5
377 1 0.399624 0.854819 0.5
378 1 0.424473 0.902295 0.5
379 3 0.4496 0.854832 0.5
380 3 0.474379 0.902314 0.5
401 1 -0.000155436 0.950256 0.5
402 1 0.04985 0.950232 0.5
403 1 0.0998448 0.950209 0.5
404 1 0.149828 0.950184 0.5
405 1 0.199798 0.950157 0.5
406 1 0.249751 0.950126 0.5
407 1 0.299681 0.950092 0.5
408 1 0.34958 0.950058 0.5
409 1 0.39943 0.950029 0.5
410 3 0.449206 0.950028 0.5
21 2 0.5 9.72265e-05 0.5
22 2 0.525 0.0477693 0.5
23 2 0.55 9.72265e-05 0.5
24 2 0.575 0.0477693 0.5
25 2 0.6 9.72265e-05 0.5
26 2 0.625 0.0477693 0.5
27 2 0.65 9.72265e-05 0.5
28 2 0.675 0.0477693 0.5
29 2 0.7 9.72265e-05 0.5
30 2 0.725 0.0477693 0.5
31 2 0.75 9.72265e-05 0.5
32 2 0.775 0.0477693 0.5
33 2 0.8 9.72265e-05 0.5
34 2 0.825 0.0477693 0.5
35 2 0.85 9.72265e-05 0.5
36 2 0.875 0.0477693 0.5
37 2 0.9 9.72265e-05 0.5
38 2 0.925 0.0477693 0.5
39 2 0.95 9.72265e-05 0.5
40 2 0.975 0.0477693 0.5
61 2 0.5 0.095246 0.5
62 1 0.525002 0.142733 0.5
63 2 0.55 0.095246 0.5
64 1 0.575002 0.142734 0.5
65 2 0.6 0.095246 0.5
66 1 0.625002 0.142735 0.5
67 2 0.65 0.095246 0.5
68 1 0.675002 0.142735 0.5
69 2 0.7 0.095246 0.5
70 1 0.725001 0.142736 0.5
71 2 0.75 0.095246 0.5
72 1 0.775 0.142736 0.5
73 2 0.8 0.095246 0.5
74 1 0.824998 0.142736 0.5
75 2 0.85 0.095246 0.5
76 1 0.874997 0.142736 0.5
77 2 0.9 0.095246 0.5
78 1 0.924996 0.142736 0.5
79 2 0.95 0.095246 0.5
80 1 0.974995 0.142735 0.5
101 1 0.500002 0.19022 0.5
102 1 0.525003 0.237707 0.5
103 1 0.550003 0.190221 0.5
104 1 0.575004 0.23771 0.5
105 1 0.600003 0.190223 0.5
106 1 0.625004 0.237713 0.5
107 1 0.650003 0.190224 0.5
108 1 0.675003 0.237715 0.5
109 1 0.700002 0.190226 0.5
110 1 0.725 0.237717 0.5
111 1 0.75 0.190227 0.5
112 1 0.774997 0.237719 0.5
113 1 0.799998 0.190227 0.5
114 1 0.824994 0.237719 0.5
115 1 0.849995 0.190227 0.5
116 1 0.87499 0.237719 0.5
117 1 0.899993 0.190227 0.5
118 1 0.924987 0.237718 0.5
119 1 0.94999 0.190226 0.5
120 1 0.974984 0.237716 0.5
141 1 0.500002 0.285191 0.5
142 1 0.525001 0.332679 0.5
143 1 0.550004 0.285196 0.5
144 1 0.575003 0.332686 0.5
145 1 0.600004 0.2852 0.5
146 1 0.625003 0.332692 0.5
147 1 0.650003 0.285204 0.5
148 1 0.675001 0.332698 0.5
149 1 0.700001 0.285208 0.5
150 1 0.724997 0.332703 0.5
151 1 0.749997 0.285211 0.5
152 1 0.774992 0.332706 0.5
153 1 0.799993 0.285212 0.5
154 1 0.824986 0.332707 0.5
155 1 0.849988 0.285213 0.5
156 1 0.87498 0.332707 0.5
157 1 0.899983 0.285211 0.5
158 1 0.924974 0.332704 0.5
159 1 0.949979 0.285209 0.5
160 1 0.97497 0.332699 0.5
181 1 0.499997 0.380161 0.5
182 1 0.524995 0.42765 0.5
183 1 0.55 0.380169 0.5
184 1 0.574997 0.427662 0.5
185 1 0.600001 0.380179 0.5
186 1 0.624996 0.427674 0.5
187 1 0.649999 0.380187 0.5
188 1 0.674993 0.427685 0.5
189 1 0.699995 0.380195 0.5
190 1 0.724987 0.427694 0.5
191 1 0.74999 0.3802 0.5
192 1 0.774979 0.4277 0.5
193 1 0.799983 0.380203 0.5
194 1 0.82497 0.427702 0.5
195 1 0.849976 0.380203 0.5
196 1 0.874962 0.4277 0.5
197 1 0.899969 0.380201 0.5
198 1 0.924955 0.427694 0.5
199 1 0.949963 0.380195 0.5
200 1 0.974949 0.427686 0.5
221 1 0.499985 0.475126 0.5
222 1 0.524978 0.522617 0.5
223 1 0.54999 0.475142 0.5
224 1 0.574982 0.522639 0.5
225 1 0.599991 0.475159 0.5
226 1 0.624981 0.522661 0.5
227 1 0.649988 0.475174 0.5
228 1 0.674975 0.522679 0.5
229 1 0.699982 0.475187 0.5
230 1 0.724966 0.522694 0.5
231 1 0.749974 0.475197 0.5
232 1 0.774955 0.522703 0.5
233 1 0.799964 0.475202 0.5
234 1 0.824943 0.522705 0.5
235 1 0.849954 0.475201 0.5
236 1 0.874933 0.522701 0.5
237 1 0.899945 0.475196 0.5
238 1 0.924925 0.52269 0.5
239 1 0.949938 0.475186 0.5
240 1 0.97492 0.522675 0.5
261 1 0.499959 0.570086 0.5
262 1 0.524943 0.61758 0.5
263 1 0.549967 0.570114 0.5
264 1 0.57495 0.617618 0.5
265 1 0.599969 0.570143 0.5
266 1 0.62495 0.617654 0.5
267 1 0.649965 0.570169 0.5
268 1 0.674942 0.617685 0.5
269 1 0.699956 0.57019 0.5
270 1 0.724928 0.617708 0.5
271 1 0.749943 0.570205 0.5
272 1 0.774912 0.617721 0.5
273 1 0.799929 0.570212 0.5
274 1 0.824898 0.617722 0.5
275 1 0.849918 0.570209 0.5
276 1 0.87489 0.617709 0.5
277 1 0.89991 0.570198 0.5
278 1 0.924886 0.617689 0.5
279 1 0.949905 0.57018 0.5
280 1 0.974885 0.617665 0.5
301 1 0.499905 0.665034 0.5
302 1 0.52487 0.712528 0.5
303 1 0.54992 0.665082 0.5
304 1 0.574889 0.712594 0.5
305 1 0.599927 0.665131 0.5
306 1 0.624897 0.712656 0.5
307 1 0.649923 0.665175 0.5
308 1 0.674887 0.712709 0.5
309 1 0.699909 0.66521 0.5
310 1 0.724861 0.71275 0.5
311 1 0.749889 0.665234 0.5
312 1 0.774836 0.712765 0.5
313 1 0.799871 0.665239 0.5
314 1 0.82483 0.712747 0.5
315 1 0.849864 0.665225 0.5
316 1 0.874834 0.712716 0.5
317 1 0.899863 0.665201 0.5
318 1 0.924843 0.712682 0.5
319 1 0.949866 0.665173 0.5
320 1 0.974851 0.712649 0.5
341 1 0.499787 0.759953 0.5
342 1 0.52469 0.807421 0.5
343 1 0.549823 0.76003 0.5
344 1 0.574776 0.807533 0.5
345 1 0.599856 0.760116 0.5
346 1 0.624831 0.807653 0.5
347 1 0.649861 0.760196 0.5
348 1 0.674799 0.807786 0.5
349 1 0.69983 0.760269 0.5
350 1 0.724719 0.807872 0.5
351 1 0.749788 0.760305 0.5
352 1 0.774726 0.807816 0.5
353 1 0.799785 0.760276 0.5
354 1 0.824755 0.807755 0.5
355 1 0.849799 0.760234 0.5
356 1 0.874784 0.807705 0.5
357 1 0.899816 0.760193 0.5
358 1 0.924809 0.807661 0.5
359 1 0.949831 0.760155 0.5
360 1 0.974827 0.807623 0.5
381 3 0.499627 0.854966 0.5
382 3 0.524502 0.902665 0.5
383 3 0.549548 0.854826 0.5
384 3 0.574375 0.902083 0.5
385 3 0.599776 0.855026 0.5
386 3 0.624766 0.902684 0.5
387 3 0.649783 0.855279 0.5
388 3 0.674357 0.903322 0.5
389 3 0.699615 0.855501 0.5
390 3 0.724507 0.90297 0.5
391 3 0.74965 0.855371 0.5
392 3 0.774643 0.902796 0.5
393 1 0.799704 0.855278 0.5
394 1 0.824714 0.902724 0.5
395 1 0.84975 0.855215 0.5
396 1 0.874767 0.902666 0.5
397 1 0.899787 0.855164 0.5
398 1 0.924804 0.902623 0.5
399 1 0.949814 0.855123 0.5
400 1 0.974827 0.902588 0.5
411 3 0.49891 0.950142 0.5
412 3 0.616302 1.00004 0.5
413 3 0.598912 0.949203 0.5
414 3 0.648591 0.951876 0.5
415 3 0.69925 0.950801 0.5
416 3 0.749552 0.950508 0.5
417 1 0.799674 0.950423 0.5
418 1 0.84975 0.950364 0.5
419 1 0.899798 0.950319 0.5
420 1 0.949828 0.950284 0.5
ITEM: TIMESTEP
182
ITEM: NUMBER OF ATOMS
420
ITEM: BOX BOUNDS pp ss pp
0.0000000000000000e+00 2.2653923264628304e+01
2.1918578738840608e-01 2.0404593902351529e+01
-2.8317404080785380e-01 2.8317404080785380e-01
ITEM: ATOMS id type xs ys zs
1 2 0 9.72128e-05 0.5
2 2 0.025 0.0477626 0.5
3 2 0.05 9.72128e-05 0.5
4 2 0.075 0.0477626 0.5
5 2 0.1 9.72128e-05 0.5
6 2 0.125 0.0477626 0.5
7 2 0.15 9.72128e-05 0.5
8 2 0.175 0.0477626 0.5
9 2 0.2 9.72128e-05 0.5
10 2 0.225 0.0477626 0.5
11 2 0.25 9.72128e-05 0.5
12 2 0.275 0.0477626 0.5
13 2 0.3 9.72128e-05 0.5
14 2 0.325 0.0477626 0.5
15 2 0.35 9.72128e-05 0.5
16 2 0.375 0.0477626 0.5
17 2 0.4 9.72128e-05 0.5
18 2 0.425 0.0477626 0.5
19 2 0.45 9.72128e-05 0.5
20 2 0.475 0.0477626 0.5
41 2 3.57546e-18 0.0952326 0.5
42 1 0.0249907 0.142714 0.5
43 2 0.05 0.0952326 0.5
44 1 0.0749904 0.142714 0.5
45 2 0.1 0.0952326 0.5
46 1 0.124991 0.142713 0.5
47 2 0.15 0.0952326 0.5
48 1 0.174992 0.142712 0.5
49 2 0.2 0.0952326 0.5
50 1 0.224993 0.142711 0.5
51 2 0.25 0.0952326 0.5
52 1 0.274994 0.142711 0.5
53 2 0.3 0.0952326 0.5
54 1 0.324996 0.142711 0.5
55 2 0.35 0.0952326 0.5
56 1 0.374998 0.142712 0.5
57 2 0.4 0.0952326 0.5
58 1 0.424999 0.142712 0.5
59 2 0.45 0.0952326 0.5
60 1 0.475 0.142713 0.5
410 3 0.449156 0.949894 0.5
82 1 0.0249724 0.237679 0.5
83 1 0.0499813 0.190196 0.5
84 1 0.0749716 0.237676 0.5
85 1 0.0999813 0.190194 0.5
86 1 0.124972 0.237672 0.5
87 1 0.149982 0.190192 0.5
88 1 0.174974 0.237669 0.5
89 1 0.199984 0.19019 0.5
90 1 0.224978 0.237667 0.5
91 1 0.249987 0.190189 0.5
92 1 0.274982 0.237665 0.5
93 1 0.29999 0.190189 0.5
94 1 0.324986 0.237665 0.5
95 1 0.349993 0.190189 0.5
96 1 0.374991 0.237666 0.5
97 1 0.399996 0.19019 0.5
98 1 0.424995 0.237668 0.5
99 1 0.449998 0.190191 0.5
100 1 0.474998 0.237671 0.5
409 1 0.399381 0.949889 0.5
122 1 0.0249507 0.332646 0.5
123 1 0.0499615 0.285159 0.5
124 1 0.0749496 0.332638 0.5
125 1 0.0999615 0.285154 0.5
126 1 0.124951 0.33263 0.5
127 1 0.149963 0.285149 0.5
128 1 0.174954 0.332623 0.5
129 1 0.199967 0.285144 0.5
130 1 0.224959 0.332618 0.5
131 1 0.249971 0.285142 0.5
132 1 0.274965 0.332615 0.5
133 1 0.299977 0.28514 0.5
134 1 0.324972 0.332614 0.5
135 1 0.349983 0.285141 0.5
136 1 0.37498 0.332616 0.5
137 1 0.399989 0.285144 0.5
138 1 0.424986 0.332621 0.5
139 1 0.449993 0.285147 0.5
140 1 0.474992 0.332627 0.5
408 1 0.349531 0.949912 0.5
162 1 0.0249228 0.427613 0.5
163 1 0.0499368 0.380124 0.5
164 1 0.0749217 0.427599 0.5
165 1 0.0999369 0.380113 0.5
166 1 0.124923 0.427585 0.5
167 1 0.149939 0.380103 0.5
168 1 0.174927 0.427573 0.5
169 1 0.199944 0.380094 0.5
170 1 0.224933 0.427563 0.5
171 1 0.24995 0.380089 0.5
172 1 0.274941 0.427558 0.5
173 1 0.299958 0.380086 0.5
174 1 0.324951 0.427556 0.5
175 1 0.349967 0.380087 0.5
176 1 0.374961 0.42756 0.5
177 1 0.399976 0.380092 0.5
178 1 0.424971 0.427568 0.5
179 1 0.449983 0.380099 0.5
180 1 0.474978 0.427579 0.5
407 1 0.299634 0.949943 0.5
202 1 0.0248883 0.522582 0.5
203 1 0.0499055 0.475088 0.5
204 1 0.0748878 0.522559 0.5
205 1 0.0999059 0.47507 0.5
206 1 0.124889 0.522538 0.5
207 1 0.149909 0.475054 0.5
208 1 0.174893 0.522519 0.5
209 1 0.199914 0.47504 0.5
210 1 0.224898 0.522503 0.5
211 1 0.249921 0.475029 0.5
212 1 0.274907 0.522493 0.5
213 1 0.299931 0.475025 0.5
214 1 0.324917 0.52249 0.5
215 1 0.349942 0.475026 0.5
216 1 0.37493 0.522494 0.5
217 1 0.399953 0.475033 0.5
218 1 0.424942 0.522507 0.5
219 1 0.449964 0.475045 0.5
220 1 0.474954 0.522526 0.5
406 1 0.249706 0.949975 0.5
242 1 0.0248505 0.617549 0.5
243 1 0.0498692 0.570052 0.5
244 1 0.0748509 0.617518 0.5
245 1 0.0998697 0.570026 0.5
246 1 0.124851 0.617489 0.5
247 1 0.149871 0.570001 0.5
248 1 0.174852 0.617462 0.5
249 1 0.199875 0.56998 0.5
250 1 0.224854 0.617438 0.5
251 1 0.249881 0.569964 0.5
252 1 0.274859 0.617422 0.5
253 1 0.299889 0.569954 0.5
254 1 0.324867 0.617414 0.5
255 1 0.349901 0.569954 0.5
256 1 0.374879 0.617418 0.5
257 1 0.399914 0.569963 0.5
258 1 0.424892 0.617434 0.5
259 1 0.449928 0.569983 0.5
260 1 0.474907 0.617462 0.5
405 1 0.199756 0.950005 0.5
282 1 0.0248167 0.712512 0.5
283 1 0.0498332 0.665014 0.5
284 1 0.0748181 0.712476 0.5
285 1 0.0998332 0.664981 0.5
286 1 0.124816 0.712441 0.5
287 1 0.149832 0.664949 0.5
288 1 0.17481 0.712407 0.5
289 1 0.19983 0.664919 0.5
290 1 0.224803 0.712375 0.5
291 1 0.249829 0.664894 0.5
292 1 0.274797 0.712348 0.5
293 1 0.299831 0.664877 0.5
294 1 0.324794 0.712331 0.5
295 1 0.349838 0.664872 0.5
296 1 0.374799 0.71233 0.5
297 1 0.399849 0.664883 0.5
298 1 0.424809 0.71235 0.5
299 1 0.449862 0.664906 0.5
300 1 0.474819 0.71238 0.5
404 1 0.149789 0.950035 0.5
322 1 0.0247975 0.807471 0.5
323 1 0.0498062 0.759973 0.5
324 1 0.0747988 0.807433 0.5
325 1 0.0998046 0.759936 0.5
326 1 0.124792 0.807397 0.5
327 1 0.149797 0.7599 0.5
328 1 0.174777 0.80736 0.5
329 1 0.199785 0.759864 0.5
330 1 0.224756 0.807323 0.5
331 1 0.24977 0.75983 0.5
332 1 0.274729 0.807287 0.5
333 1 0.299756 0.759802 0.5
334 1 0.324701 0.807256 0.5
335 1 0.349746 0.759784 0.5
336 1 0.374679 0.807238 0.5
337 1 0.399745 0.759789 0.5
338 1 0.424671 0.80725 0.5
339 1 0.449755 0.759825 0.5
340 1 0.474684 0.807317 0.5
403 1 0.0998085 0.950063 0.5
362 1 0.0248025 0.902427 0.5
363 1 0.0497981 0.85493 0.5
364 1 0.0748021 0.902395 0.5
365 1 0.0997937 0.854895 0.5
366 1 0.124791 0.902363 0.5
367 1 0.149779 0.85486 0.5
368 1 0.174767 0.90233 0.5
369 1 0.199755 0.854824 0.5
370 1 0.224731 0.902296 0.5
371 1 0.249721 0.854786 0.5
372 1 0.27468 0.902259 0.5
373 1 0.299677 0.854748 0.5
374 1 0.324612 0.902221 0.5
375 1 0.349628 0.854713 0.5
376 1 0.374527 0.902186 0.5
377 1 0.399583 0.854693 0.5
378 1 0.424428 0.902165 0.5
379 3 0.449561 0.854713 0.5
380 3 0.474336 0.902192 0.5
402 1 0.0498158 0.950091 0.5
181 1 0.499988 0.380109 0.5
221 1 0.499971 0.475062 0.5
261 1 0.499939 0.57001 0.5
301 1 0.499879 0.664947 0.5
341 1 0.499755 0.759856 0.5
381 3 0.49959 0.854855 0.5
411 3 0.49886 0.950017 0.5
21 2 0.5 9.72128e-05 0.5
22 2 0.525 0.0477626 0.5
23 2 0.55 9.72128e-05 0.5
24 2 0.575 0.0477626 0.5
25 2 0.6 9.72128e-05 0.5
26 2 0.625 0.0477626 0.5
27 2 0.65 9.72128e-05 0.5
28 2 0.675 0.0477626 0.5
29 2 0.7 9.72128e-05 0.5
30 2 0.725 0.0477626 0.5
31 2 0.75 9.72128e-05 0.5
32 2 0.775 0.0477626 0.5
33 2 0.8 9.72128e-05 0.5
34 2 0.825 0.0477626 0.5
35 2 0.85 9.72128e-05 0.5
36 2 0.875 0.0477626 0.5
37 2 0.9 9.72128e-05 0.5
38 2 0.925 0.0477626 0.5
39 2 0.95 9.72128e-05 0.5
40 2 0.975 0.0477626 0.5
61 2 0.5 0.0952326 0.5
62 1 0.525001 0.142713 0.5
63 2 0.55 0.0952326 0.5
64 1 0.575001 0.142714 0.5
65 2 0.6 0.0952326 0.5
66 1 0.625001 0.142715 0.5
67 2 0.65 0.0952326 0.5
68 1 0.675 0.142716 0.5
69 2 0.7 0.0952326 0.5
70 1 0.724999 0.142716 0.5
71 2 0.75 0.0952326 0.5
72 1 0.774997 0.142716 0.5
73 2 0.8 0.0952326 0.5
74 1 0.824996 0.142716 0.5
75 2 0.85 0.0952326 0.5
76 1 0.874994 0.142716 0.5
77 2 0.9 0.0952326 0.5
78 1 0.924993 0.142716 0.5
79 2 0.95 0.0952326 0.5
80 1 0.974991 0.142715 0.5
101 1 0.5 0.190193 0.5
102 1 0.525 0.237674 0.5
103 1 0.550001 0.190195 0.5
104 1 0.575001 0.237678 0.5
105 1 0.600001 0.190197 0.5
106 1 0.625 0.237681 0.5
107 1 0.65 0.190199 0.5
108 1 0.674998 0.237684 0.5
109 1 0.699998 0.1902 0.5
110 1 0.724995 0.237686 0.5
111 1 0.749996 0.190201 0.5
112 1 0.774991 0.237687 0.5
113 1 0.799993 0.190201 0.5
114 1 0.824986 0.237688 0.5
115 1 0.84999 0.190201 0.5
116 1 0.874982 0.237687 0.5
117 1 0.899987 0.190201 0.5
118 1 0.924978 0.237685 0.5
119 1 0.949984 0.190199 0.5
120 1 0.974974 0.237683 0.5
141 1 0.499997 0.285152 0.5
142 1 0.524995 0.332634 0.5
143 1 0.549999 0.285157 0.5
144 1 0.574996 0.332642 0.5
145 1 0.599999 0.285162 0.5
146 1 0.624995 0.332649 0.5
147 1 0.649997 0.285167 0.5
148 1 0.674991 0.332656 0.5
149 1 0.699993 0.285171 0.5
150 1 0.724986 0.332661 0.5
151 1 0.749988 0.285174 0.5
152 1 0.774979 0.332664 0.5
153 1 0.799983 0.285175 0.5
154 1 0.824972 0.332664 0.5
155 1 0.849977 0.285175 0.5