ITEM: TIMESTEP
0
ITEM: NUMBER OF ATOMS
420
ITEM: BOX BOUNDS pp ss pp
0.0000000000000000e+00 2.2653923264628304e+01
2.1918578738840608e-01 1.9399687255163009e+01
-2.8317404080785380e-01 2.8317404080785380e-01
ITEM: ATOMS id type xs ys zs
1 2 0 0.000102306 0.5
2 2 0.025 0.050265 0.5
3 2 0.05 0.000102306 0.5
4 2 0.075 0.050265 0.5
5 2 0.1 0.000102306 0.5
6 2 0.125 0.050265 0.5
7 2 0.15 0.000102306 0.5
8 2 0.175 0.050265 0.5
9 2 0.2 0.000102306 0.5
10 2 0.225 0.050265 0.5
11 2 0.25 0.000102306 0.5
12 2 0.275 0.050265 0.5
13 2 0.3 0.000102306 0.5
14 2 0.325 0.050265 0.5
15 2 0.35 0.000102306 0.5
16 2 0.375 0.050265 0.5
17 2 0.4 0.000102306 0.5
18 2 0.425 0.050265 0.5
19 2 0.45 0.000102306 0.5
20 2 0.475 0.050265 0.5
41 2 3.57546e-18 0.100222 0.5
42 1 0.025 0.15017 0.5
43 2 0.05 0.100222 0.5
44 1 0.075 0.15017 0.5
45 2 0.1 0.100222 0.5
46 1 0.125 0.15017 0.5
47 2 0.15 0.100222 0.5
48 1 0.175 0.15017 0.5
49 2 0.2 0.100222 0.5
50 1 0.225 0.15017 0.5
51 2 0.25 0.100222 0.5
52 1 0.275 0.15017 0.5
53 2 0.3 0.100222 0.5
54 1 0.325 0.15017 0.5
55 2 0.35 0.100222 0.5
56 1 0.375 0.15017 0.5
57 2 0.4 0.100222 0.5
58 1 0.425 0.15017 0.5
59 2 0.45 0.100222 0.5
60 1 0.475 0.15017 0.5
81 1 2.74429e-20 0.200142 0.5
82 1 0.025 0.250112 0.5
83 1 0.05 0.200142 0.5
84 1 0.075 0.250112 0.5
85 1 0.1 0.200142 0.5
86 1 0.125 0.250112 0.5
87 1 0.15 0.200142 0.5
88 1 0.175 0.250112 0.5
89 1 0.2 0.200142 0.5
90 1 0.225 0.250112 0.5
91 1 0.25 0.200142 0.5
92 1 0.275 0.250112 0.5
93 1 0.3 0.200142 0.5
94 1 0.325 0.250112 0.5
95 1 0.35 0.200142 0.5
96 1 0.375 0.250112 0.5
97 1 0.4 0.200142 0.5
98 1 0.425 0.250112 0.5
99 1 0.45 0.200142 0.5
100 1 0.475 0.250112 0.5
121 1 0 0.300089 0.5
122 1 0.025 0.35007 0.5
123 1 0.05 0.300089 0.5
124 1 0.075 0.35007 0.5
125 1 0.1 0.300089 0.5
126 1 0.125 0.35007 0.5
127 1 0.15 0.300089 0.5
128 1 0.175 0.35007 0.5
129 1 0.2 0.300089 0.5
130 1 0.225 0.35007 0.5
131 1 0.25 0.300089 0.5
132 1 0.275 0.35007 0.5
133 1 0.3 0.300089 0.5
134 1 0.325 0.35007 0.5
135 1 0.35 0.300089 0.5
136 1 0.375 0.35007 0.5
137 1 0.4 0.300089 0.5
138 1 0.425 0.35007 0.5
139 1 0.45 0.300089 0.5
140 1 0.475 0.35007 0.5
161 1 0 0.400045 0.5
162 1 0.025 0.450021 0.5
163 1 0.05 0.400045 0.5
164 1 0.075 0.450021 0.5
165 1 0.1 0.400045 0.5
166 1 0.125 0.450021 0.5
167 1 0.15 0.400045 0.5
168 1 0.175 0.450021 0.5
169 1 0.2 0.400045 0.5
170 1 0.225 0.450021 0.5
171 1 0.25 0.400045 0.5
172 1 0.275 0.450021 0.5
173 1 0.3 0.400045 0.5
174 1 0.325 0.450021 0.5
175 1 0.35 0.400045 0.5
176 1 0.375 0.450021 0.5
177 1 0.4 0.400045 0.5
178 1 0.425 0.450021 0.5
179 1 0.45 0.400045 0.5
180 1 0.475 0.450021 0.5
201 1 0 0.5 0.5
202 1 0.025 0.549979 0.5
203 1 0.05 0.5 0.5
204 1 0.075 0.549979 0.5
205 1 0.1 0.5 0.5
206 1 0.125 0.549979 0.5
207 1 0.15 0.5 0.5
208 1 0.175 0.549979 0.5
209 1 0.2 0.5 0.5
210 1 0.225 0.549979 0.5
211 1 0.25 0.5 0.5
212 1 0.275 0.549979 0.5
213 1 0.3 0.5 0.5
214 1 0.325 0.549979 0.5
215 1 0.35 0.5 0.5
216 1 0.375 0.549979 0.5
217 1 0.4 0.5 0.5
218 1 0.425 0.549979 0.5
219 1 0.45 0.5 0.5
220 1 0.475 0.549979 0.5
241 1 0 0.599955 0.5
242 1 0.025 0.64993 0.5
243 1 0.05 0.599955 0.5
244 1 0.075 0.64993 0.5
245 1 0.1 0.599955 0.5
246 1 0.125 0.64993 0.5
247 1 0.15 0.599955 0.5
248 1 0.175 0.64993 0.5
249 1 0.2 0.599955 0.5
250 1 0.225 0.64993 0.5
251 1 0.25 0.599955 0.5
252 1 0.275 0.64993 0.5
253 1 0.3 0.599955 0.5
254 1 0.325 0.64993 0.5
255 1 0.35 0.599955 0.5
256 1 0.375 0.64993 0.5
257 1 0.4 0.599955 0.5
258 1 0.425 0.64993 0.5
259 1 0.45 0.599955 0.5
260 1 0.475 0.64993 0.5
281 1 2.18851e-18 0.699911 0.5
282 1 0.025 0.749888 0.5
283 1 0.05 0.699911 0.5
284 1 0.075 0.749888 0.5
285 1 0.1 0.699911 0.5
286 1 0.125 0.749888 0.5
287 1 0.15 0.699911 0.5
288 1 0.175 0.749888 0.5
289 1 0.2 0.699911 0.5
290 1 0.225 0.749888 0.5
291 1 0.25 0.699911 0.5
292 1 0.275 0.749888 0.5
293 1 0.3 0.699911 0.5
294 1 0.325 0.749888 0.5
295 1 0.35 0.699911 0.5
296 1 0.375 0.749888 0.5
297 1 0.4 0.699911 0.5
298 1 0.425 0.749888 0.5
299 1 0.45 0.699911 0.5
300 1 0.475 0.749888 0.5
321 1 0 0.799858 0.5
322 1 0.025 0.84983 0.5
323 1 0.05 0.799858 0.5
324 1 0.075 0.84983 0.5
325 1 0.1 0.799858 0.5
326 1 0.125 0.84983 0.5
327 1 0.15 0.799858 0.5
328 1 0.175 0.84983 0.5
329 1 0.2 0.799858 0.5
330 1 0.225 0.84983 0.5
331 1 0.25 0.799858 0.5
332 1 0.275 0.84983 0.5
333 1 0.3 0.799858 0.5
334 1 0.325 0.84983 0.5
335 1 0.35 0.799858 0.5
336 1 0.375 0.84983 0.5
337 1 0.4 0.799858 0.5
338 1 0.425 0.84983 0.5
339 1 0.45 0.799858 0.5
340 1 0.475 0.84983 0.5
361 1 5.74281e-19 0.899778 0.5
362 1 0.025 0.949735 0.5
363 1 0.05 0.899778 0.5
364 1 0.075 0.949735 0.5
365 1 0.1 0.899778 0.5
366 1 0.125 0.949735 0.5
367 1 0.15 0.899778 0.5
368 1 0.175 0.949735 0.5
369 1 0.2 0.899778 0.5
370 1 0.225 0.949735 0.5
371 1 0.25 0.899778 0.5
372 1 0.275 0.949735 0.5
373 1 0.3 0.899778 0.5
374 1 0.325 0.949735 0.5
375 1 0.35 0.899778 0.5
376 1 0.375 0.949735 0.5
377 1 0.4 0.899778 0.5
378 1 0.425 0.949735 0.5
379 3 0.45 0.899778 0.5
380 3 0.475 0.949735 0.5
401 1 3.60804e-19 0.999898 0.5
402 1 0.05 0.999898 0.5
403 1 0.1 0.999898 0.5
404 1 0.15 0.999898 0.5
405 1 0.2 0.999898 0.5
406 1 0.25 0.999898 0.5
407 1 0.3 0.999898 0.5
408 1 0.35 0.999898 0.5
409 1 0.4 0.999898 0.5
410 3 0.45 0.999898 0.5
21 2 0.5 0.000102306 0.5
22 2 0.525 0.050265 0.5
23 2 0.55 0.000102306 0.5
24 2 0.575 0.050265 0.5
25 2 0.6 0.000102306 0.5
26 2 0.625 0.050265 0.5
27 2 0.65 0.000102306 0.5
28 2 0.675 0.050265 0.5
29 2 0.7 0.000102306 0.5
30 2 0.725 0.050265 0.5
31 2 0.75 0.000102306 0.5
32 2 0.775 0.050265 0.5
33 2 0.8 0.000102306 0.5
34 2 0.825 0.050265 0.5
35 2 0.85 0.000102306 0.5
36 2 0.875 0.050265 0.5
37 2 0.9 0.000102306 0.5
38 2 0.925 0.050265 0.5
39 2 0.95 0.000102306 0.5
40 2 0.975 0.050265 0.5
61 2 0.5 0.100222 0.5
62 1 0.525 0.15017 0.5
63 2 0.55 0.100222 0.5
64 1 0.575 0.15017 0.5
65 2 0.6 0.100222 0.5
66 1 0.625 0.15017 0.5
67 2 0.65 0.100222 0.5
68 1 0.675 0.15017 0.5
69 2 0.7 0.100222 0.5
70 1 0.725 0.15017 0.5
71 2 0.75 0.100222 0.5
72 1 0.775 0.15017 0.5
73 2 0.8 0.100222 0.5
74 1 0.825 0.15017 0.5
75 2 0.85 0.100222 0.5
76 1 0.875 0.15017 0.5
77 2 0.9 0.100222 0.5
78 1 0.925 0.15017 0.5
79 2 0.95 0.100222 0.5
80 1 0.975 0.15017 0.5
101 1 0.5 0.200142 0.5
102 1 0.525 0.250112 0.5
103 1 0.55 0.200142 0.5
104 1 0.575 0.250112 0.5
105 1 0.6 0.200142 0.5
106 1 0.625 0.250112 0.5
107 1 0.65 0.200142 0.5
108 1 0.675 0.250112 0.5
109 1 0.7 0.200142 0.5
110 1 0.725 0.250112 0.5
111 1 0.75 0.200142 0.5
112 1 0.775 0.250112 0.5
113 1 0.8 0.200142 0.5
114 1 0.825 0.250112 0.5
115 1 0.85 0.200142 0.5
116 1 0.875 0.250112 0.5
117 1 0.9 0.200142 0.5
118 1 0.925 0.250112 0.5
119 1 0.95 0.200142 0.5
120 1 0.975 0.250112 0.5
141 1 0.5 0.300089 0.5
142 1 0.525 0.35007 0.5
143 1 0.55 0.300089 0.5
144 1 0.575 0.35007 0.5
145 1 0.6 0.300089 0.5
146 1 0.625 0.35007 0.5
147 1 0.65 0.300089 0.5
148 1 0.675 0.35007 0.5
149 1 0.7 0.300089 0.5
150 1 0.725 0.35007 0.5
151 1 0.75 0.300089 0.5
152 1 0.775 0.35007 0.5
153 1 0.8 0.300089 0.5
154 1 0.825 0.35007 0.5
155 1 0.85 0.300089 0.5
156 1 0.875 0.35007 0.5
157 1 0.9 0.300089 0.5
158 1 0.925 0.35007 0.5
159 1 0.95 0.300089 0.5
160 1 0.975 0.35007 0.5
181 1 0.5 0.400045 0.5
182 1 0.525 0.450021 0.5
183 1 0.55 0.400045 0.5
184 1 0.575 0.450021 0.5
185 1 0.6 0.400045 0.5
186 1 0.625 0.450021 0.5
187 1 0.65 0.400045 0.5
188 1 0.675 0.450021 0.5
189 1 0.7 0.400045 0.5
190 1 0.725 0.450021 0.5
191 1 0.75 0.400045 0.5
192 1 0.775 0.450021 0.5
193 1 0.8 0.400045 0.5
194 1 0.825 0.450021 0.5
195 1 0.85 0.400045 0.5
196 1 0.875 0.450021 0.5
197 1 0.9 0.400045 0.5
198 1 0.925 0.450021 0.5
199 1 0.95 0.400045 0.5
200 1 0.975 0.450021 0.5
221 1 0.5 0.5 0.5
222 1 0.525 0.549979 0.5
223 1 0.55 0.5 0.5
224 1 0.575 0.549979 0.5
225 1 0.6 0.5 0.5
226 1 0.625 0.549979 0.5
227 1 0.65 0.5 0.5
228 1 0.675 0.549979 0.5
229 1 0.7 0.5 0.5
230 1 0.725 0.549979 0.5
231 1 0.75 0.5 0.5
232 1 0.775 0.549979 0.5
233 1 0.8 0.5 0.5
234 1 0.825 0.549979 0.5
235 1 0.85 0.5 0.5
236 1 0.875 0.549979 0.5
237 1 0.9 0.5 0.5
238 1 0.925 0.549979 0.5
239 1 0.95 0.5 0.5
240 1 0.975 0.549979 0.5
261 1 0.5 0.599955 0.5
262 1 0.525 0.64993 0.5
263 1 0.55 0.599955 0.5
264 1 0.575 0.64993 0.5
265 1 0.6 0.599955 0.5
266 1 0.625 0.64993 0.5
267 1 0.65 0.599955 0.5
268 1 0.675 0.64993 0.5
269 1 0.7 0.599955 0.5
270 1 0.725 0.64993 0.5
271 1 0.75 0.599955 0.5
272 1 0.775 0.64993 0.5
273 1 0.8 0.599955 0.5
274 1 0.825 0.64993 0.5
275 1 0.85 0.599955 0.5
276 1 0.875 0.64993 0.5
277 1 0.9 0.599955 0.5
278 1 0.925 0.64993 0.5
279 1 0.95 0.599955 0.5
280 1 0.975 0.64993 0.5
301 1 0.5 0.699911 0.5
302 1 0.525 0.749888 0.5
303 1 0.55 0.699911 0.5
304 1 0.575 0.749888 0.5
305 1 0.6 0.699911 0.5
306 1 0.625 0.749888 0.5
307 1 0.65 0.699911 0.5
308 1 0.675 0.749888 0.5
309 1 0.7 0.699911 0.5
310 1 0.725 0.749888 0.5
311 1 0.75 0.699911 0.5
312 1 0.775 0.749888 0.5
313 1 0.8 0.699911 0.5
314 1 0.825 0.749888 0.5
315 1 0.85 0.699911 0.5
316 1 0.875 0.749888 0.5
317 1 0.9 0.699911 0.5
318 1 0.925 0.749888 0.5
319 1 0.95 0.699911 0.5
320 1 0.975 0.749888 0.5
341 1 0.5 0.799858 0.5
342 1 0.525 0.84983 0.5
343 1 0.55 0.799858 0.5
344 1 0.575 0.84983 0.5
345 1 0.6 0.799858 0.5
346 1 0.625 0.84983 0.5
347 1 0.65 0.799858 0.5
348 1 0.675 0.84983 0.5
349 1 0.7 0.799858 0.5
350 1 0.725 0.84983 0.5
351 1 0.75 0.799858 0.5
352 1 0.775 0.84983 0.5
353 1 0.8 0.799858 0.5
354 1 0.825 0.84983 0.5
355 1 0.85 0.799858 0.5
356 1 0.875 0.84983 0.5
357 1 0.9 0.799858 0.5
358 1 0.925 0.84983 0.5
359 1 0.95 0.799858 0.5
360 1 0.975 0.84983 0.5
381 3 0.5 0.899778 0.5
382 3 0.525 0.949735 0.5
383 3 0.55 0.899778 0.5
384 3 0.575 0.949735 0.5
385 3 0.6 0.899778 0.5
386 3 0.625 0.949735 0.5
387 3 0.65 0.899778 0.5
388 3 0.675 0.949735 0.5
389 3 0.7 0.899778 0.5
390 3 0.725 0.949735 0.5
391 3 0.75 0.899778 0.5
392 3 0.775 0.949735 0.5
393 1 0.8 0.899778 0.5
394 1 0.825 0.949735 0.5
395 1 0.85 0.899778 0.5
396 1 0.875 0.949735 0.5
397 1 0.9 0.899778 0.5
398 1 0.925 0.949735 0.5
399 1 0.95 0.899778 0.5
400 1 0.975 0.949735 0.5
411 3 0.5 0.999898 0.5
412 3 0.55 0.999898 0.5
413 3 0.6 0.999898 0.5
414 3 0.65 0.999898 0.5
415 3 0.7 0.999898 0.5
416 3 0.75 0.999898 0.5
417 1 0.8 0.999898 0.5
418 1 0.85 0.999898 0.5
419 1 0.9 0.999898 0.5
420 1 0.95 0.999898 0.5
ITEM: TIMESTEP
150
ITEM: NUMBER OF ATOMS
420
ITEM: BOX BOUNDS pp ss pp
0.0000000000000000e+00 2.2653923264628304e+01
2.1918578738840608e-01 1.9399687255163009e+01
-2.8317404080785380e-01 2.8317404080785380e-01
ITEM: ATOMS id type xs ys zs
1 2 0 0.000102306 0.5
2 2 0.025 0.050265 0.5
3 2 0.05 0.000102306 0.5
4 2 0.075 0.050265 0.5
5 2 0.1 0.000102306 0.5
6 2 0.125 0.050265 0.5
7 2 0.15 0.000102306 0.5
8 2 0.175 0.050265 0.5
9 2 0.2 0.000102306 0.5
10 2 0.225 0.050265 0.5
11 2 0.25 0.000102306 0.5
12 2 0.275 0.050265 0.5
13 2 0.3 0.000102306 0.5
14 2 0.325 0.050265 0.5
15 2 0.35 0.000102306 0.5
16 2 0.375 0.050265 0.5
17 2 0.4 0.000102306 0.5
18 2 0.425 0.050265 0.5
19 2 0.45 0.000102306 0.5
20 2 0.475 0.050265 0.5
41 2 3.57546e-18 0.100222 0.5
42 1 0.025 0.150192 0.5
43 2 0.05 0.100222 0.5
44 1 0.075 0.150192 0.5
45 2 0.1 0.100222 0.5
46 1 0.125 0.150192 0.5
47 2 0.15 0.100222 0.5
48 1 0.175 0.150192 0.5
49 2 0.2 0.100222 0.5
50 1 0.225 0.150192 0.5
51 2 0.25 0.100222 0.5
52 1 0.275 0.150192 0.5
53 2 0.3 0.100222 0.5
54 1 0.325 0.150192 0.5
55 2 0.35 0.100222 0.5
56 1 0.375 0.150192 0.5
57 2 0.4 0.100222 0.5
58 1 0.425 0.150192 0.5
59 2 0.45 0.100222 0.5
60 1 0.475 0.150192 0.5
81 1 1.68275e-19 0.200162 0.5
82 1 0.025 0.250132 0.5
83 1 0.05 0.200162 0.5
84 1 0.075 0.250132 0.5
85 1 0.1 0.200162 0.5
86 1 0.125 0.250132 0.5
87 1 0.15 0.200162 0.5
88 1 0.175 0.250132 0.5
89 1 0.2 0.200162 0.5
90 1 0.225 0.250132 0.5
91 1 0.25 0.200162 0.5
92 1 0.275 0.250132 0.5
93 1 0.3 0.200162 0.5
94 1 0.325 0.250132 0.5
95 1 0.35 0.200162 0.5
96 1 0.375 0.250132 0.5
97 1 0.4 0.200162 0.5
98 1 0.425 0.250132 0.5
99 1 0.45 0.200162 0.5
100 1 0.475 0.250132 0.5
121 1 -4.89471e-18 0.300102 0.5
122 1 0.025 0.350072 0.5
123 1 0.05 0.300102 0.5
124 1 0.075 0.350072 0.5
125 1 0.1 0.300102 0.5
126 1 0.125 0.350072 0.5
127 1 0.15 0.300102 0.5
128 1 0.175 0.350072 0.5
129 1 0.2 0.300102 0.5
130 1 0.225 0.350072 0.5
131 1 0.25 0.300102 0.5
132 1 0.275 0.350072 0.5
133 1 0.3 0.300102 0.5
134 1 0.325 0.350072 0.5
135 1 0.35 0.300102 0.5
136 1 0.375 0.350072 0.5
137 1 0.4 0.300102 0.5
138 1 0.425 0.350072 0.5
139 1 0.45 0.300102 0.5
140 1 0.475 0.350072 0.5
161 1 -7.6982e-19 0.400042 0.5
162 1 0.025 0.450011 0.5
163 1 0.05 0.400042 0.5
164 1 0.075 0.450011 0.5
165 1 0.1 0.400042 0.5
166 1 0.125 0.450011 0.5
167 1 0.15 0.400042 0.5
168 1 0.175 0.450011 0.5
169 1 0.2 0.400042 0.5
170 1 0.225 0.450011 0.5
171 1 0.25 0.400042 0.5
172 1 0.275 0.450011 0.5
173 1 0.3 0.400042 0.5
174 1 0.325 0.450011 0.5
175 1 0.35 0.400042 0.5
176 1 0.375 0.450011 0.5
177 1 0.4 0.400042 0.5
178 1 0.425 0.450011 0.5
179 1 0.45 0.400042 0.5
180 1 0.475 0.450011 0.5
201 1 9.60036e-18 0.499981 0.5
202 1 0.025 0.549949 0.5
203 1 0.05 0.499981 0.5
204 1 0.075 0.549949 0.5
205 1 0.1 0.499981 0.5
206 1 0.125 0.549949 0.5
207 1 0.15 0.499981 0.5
208 1 0.175 0.549949 0.5
209 1 0.2 0.499981 0.5
210 1 0.225 0.549949 0.5
211 1 0.25 0.499981 0.5
212 1 0.275 0.549949 0.5
213 1 0.3 0.499981 0.5
214 1 0.325 0.549949 0.5
215 1 0.35 0.499981 0.5
216 1 0.375 0.549949 0.5
217 1 0.4 0.499981 0.5
218 1 0.425 0.549949 0.5
219 1 0.45 0.499981 0.5
220 1 0.475 0.549949 0.5
241 1 -3.25296e-18 0.599918 0.5
242 1 0.025 0.649886 0.5
243 1 0.05 0.599918 0.5
244 1 0.075 0.649886 0.5
245 1 0.1 0.599918 0.5
246 1 0.125 0.649886 0.5
247 1 0.15 0.599918 0.5
248 1 0.175 0.649886 0.5
249 1 0.2 0.599918 0.5
250 1 0.225 0.649886 0.5
251 1 0.25 0.599918 0.5
252 1 0.275 0.649886 0.5
253 1 0.3 0.599918 0.5
254 1 0.325 0.649886 0.5
255 1 0.35 0.599918 0.5
256 1 0.375 0.649886 0.5
257 1 0.4 0.599918 0.5
258 1 0.425 0.649886 0.5
259 1 0.45 0.599918 0.5
260 1 0.475 0.649886 0.5
281 1 6.42896e-19 0.699854 0.5
282 1 0.025 0.749822 0.5
283 1 0.05 0.699854 0.5
284 1 0.075 0.749822 0.5
285 1 0.1 0.699854 0.5
286 1 0.125 0.749822 0.5
287 1 0.15 0.699854 0.5
288 1 0.175 0.749822 0.5
289 1 0.2 0.699854 0.5
290 1 0.225 0.749822 0.5
291 1 0.25 0.699854 0.5
292 1 0.275 0.749822 0.5
293 1 0.3 0.699854 0.5
294 1 0.325 0.749822 0.5
295 1 0.35 0.699854 0.5
296 1 0.375 0.749822 0.5
297 1 0.4 0.699854 0.5
298 1 0.425 0.749822 0.5
299 1 0.45 0.699854 0.5
300 1 0.475 0.749822 0.5
321 1 -4.91713e-17 0.799789 0.5
322 1 0.025 0.849755 0.5
323 1 0.05 0.799789 0.5
324 1 0.075 0.849755 0.5
325 1 0.1 0.799789 0.5
326 1 0.125 0.849755 0.5
327 1 0.15 0.799789 0.5
328 1 0.175 0.849755 0.5
329 1 0.2 0.799789 0.5
330 1 0.225 0.849755 0.5
331 1 0.25 0.799789 0.5
332 1 0.275 0.849755 0.5
333 1 0.3 0.799789 0.5
334 1 0.325 0.849755 0.5
335 1 0.35 0.799789 0.5
336 1 0.375 0.849755 0.5
337 1 0.4 0.799789 0.5
338 1 0.425 0.849755 0.5
339 1 0.45 0.799789 0.5
340 1 0.475 0.849755 0.5
361 1 1.0079e-17 0.899721 0.5
362 1 0.025 0.94969 0.5
363 1 0.05 0.899721 0.5
364 1 0.075 0.94969 0.5
365 1 0.1 0.899721 0.5
366 1 0.125 0.94969 0.5
367 1 0.15 0.899721 0.5
368 1 0.175 0.94969 0.5
369 1 0.2 0.899721 0.5
370 1 0.225 0.94969 0.5
371 1 0.25 0.899721 0.5
372 1 0.275 0.94969 0.5
373 1 0.3 0.899721 0.5
374 1 0.325 0.94969 0.5
375 1 0.35 0.899721 0.5
376 1 0.375 0.94969 0.5
377 1 0.4 0.899721 0.5
378 1 0.425 0.94969 0.5
379 3 0.45 0.899721 0.5
380 3 0.475 0.94969 0.5
401 1 2.11254e-17 0.999868 0.5
402 1 0.05 0.999868 0.5
403 1 0.1 0.999868 0.5
404 1 0.15 0.999868 0.5
405 1 0.2 0.999868 0.5
406 1 0.25 0.999868 0.5
407 1 0.3 0.999868 0.5
408 1 0.35 0.999868 0.5
409 1 0.4 0.999868 0.5
410 3 0.45 0.999868 0.5
21 2 0.5 0.000102306 0.5
22 2 0.525 0.050265 0.5
23 2 0.55 0.000102306 0.5
24 2 0.575 0.050265 0.5
25 2 0.6 0.000102306 0.5
26 2 0.625 0.050265 0.5
27 2 0.65 0.000102306 0.5
28 2 0.675 0.050265 0.5
29 2 0.7 0.000102306 0.5
30 2 0.725 0.050265 0.5
31 2 0.75 0.000102306 0.5
32 2 0.775 0.050265 0.5
33 2 0.8 0.000102306 0.5
34 2 0.825 0.050265 0.5
35 2 0.85 0.000102306 0.5
36 2 0.875 0.050265 0.5
37 2 0.9 0.000102306 0.5
38 2 0.925 0.050265 0.5
39 2 0.95 0.000102306 0.5
40 2 0.975 0.050265 0.5
61 2 0.5 0.100222 0.5
62 1 0.525 0.150192 0.5
63 2 0.55 0.100222 0.5
64 1 0.575 0.150192 0.5
65 2 0.6 0.100222 0.5
66 1 0.625 0.150192 0.5
67 2 0.65 0.100222 0.5
68 1 0.675 0.150192 0.5
69 2 0.7 0.100222 0.5
70 1 0.725 0.150192 0.5
71 2 0.75 0.100222 0.5
72 1 0.775 0.150192 0.5
73 2 0.8 0.100222 0.5
74 1 0.825 0.150192 0.5
75 2 0.85 0.100222 0.5
76 1 0.875 0.150192 0.5
77 2 0.9 0.100222 0.5
78 1 0.925 0.150192 0.5
79 2 0.95 0.100222 0.5
80 1 0.975 0.150192 0.5
101 1 0.5 0.200162 0.5
102 1 0.525 0.250132 0.5
103 1 0.55 0.200162 0.5
104 1 0.575 0.250132 0.5
105 1 0.6 0.200162 0.5
106 1 0.625 0.250132 0.5
107 1 0.65 0.200162 0.5
108 1 0.675 0.250132 0.5
109 1 0.7 0.200162 0.5
110 1 0.725 0.250132 0.5
111 1 0.75 0.200162 0.5
112 1 0.775 0.250132 0.5
113 1 0.8 0.200162 0.5
114 1 0.825 0.250132 0.5
115 1 0.85 0.200162 0.5
116 1 0.875 0.250132 0.5
117 1 0.9 0.200162 0.5
118 1 0.925 0.250132 0.5
119 1 0.95 0.200162 0.5
120 1 0.975 0.250132 0.5
141 1 0.5 0.300102 0.5
142 1 0.525 0.350072 0.5
143 1 0.55 0.300102 0.5
144 1 0.575 0.350072 0.5
145 1 0.6 0.300102 0.5
146 1 0.625 0.350072 0.5
147 1 0.65 0.300102 0.5
148 1 0.675 0.350072 0.5
149 1 0.7 0.300102 0.5
150 1 0.725 0.350072 0.5
151 1 0.75 0.300102 0.5
152 1 0.775 0.350072 0.5
153 1 0.8 0.300102 0.5
154 1 0.825 0.350072 0.5
155 1 0.85 0.300102 0.5
156 1 0.875 0.350072 0.5
157 1 0.9 0.300102 0.5
158 1 0.925 0.350072 0.5
159 1 0.95 0.300102 0.5
160 1 0.975 0.350072 0.5
181 1 0.5 0.400042 0.5
182 1 0.525 0.450011 0.5
183 1 0.55 0.400042 0.5
184 1 0.575 0.450011 0.5
185 1 0.6 0.400042 0.5
186 1 0.625 0.450011 0.5
187 1 0.65 0.400042 0.5
188 1 0.675 0.450011 0.5
189 1 0.7 0.400042 0.5
190 1 0.725 0.450011 0.5
191 1 0.75 0.400042 0.5
192 1 0.775 0.450011 0.5
193 1 0.8 0.400042 0.5
194 1 0.825 0.450011 0.5
195 1 0.85 0.400042 0.5
196 1 0.875 0.450011 0.5
197 1 0.9 0.400042 0.5
198 1 0.925 0.450011 0.5
199 1 0.95 0.400042 0.5
200 1 0.975 0.450011 0.5
221 1 0.5 0.499981 0.5
222 1 0.525 0.549949 0.5
223 1 0.55 0.499981 0.5
224 1 0.575 0.549949 0.5
225 1 0.6 0.499981 0.5
226 1 0.625 0.549949 0.5
227 1 0.65 0.499981 0.5
228 1 0.675 0.549949 0.5
229 1 0.7 0.499981 0.5
230 1 0.725 0.549949 0.5
231 1 0.75 0.499981 0.5
232 1 0.775 0.549949 0.5
233 1 0.8 0.499981 0.5
234 1 0.825 0.549949 0.5
235 1 0.85 0.499981 0.5
236 1 0.875 0.549949 0.5
237 1 0.9 0.499981 0.5
238 1 0.925 0.549949 0.5
239 1 0.95 0.499981 0.5
240 1 0.975 0.549949 0.5
261 1 0.5 0.599918 0.5
262 1 0.525 0.649886 0.5
263 1 0.55 0.599918 0.5
264 1 0.575 0.649886 0.5
265 1 0.6 0.599918 0.5
266 1 0.625 0.649886 0.5
267 1 0.65 0.599918 0.5
268 1 0.675 0.649886 0.5
269 1 0.7 0.599918 0.5
270 1 0.725 0.649886 0.5
271 1 0.75 0.599918 0.5
272 1 0.775 0.649886 0.5
273 1 0.8 0.599918 0.5
274 1 0.825 0.649886 0.5
275 1 0.85 0.599918 0.5
276 1 0.875 0.649886 0.5
277 1 0.9 0.599918 0.5
278 1 0.925 0.649886 0.5
279 1 0.95 0.599918 0.5
280 1 0.975 0.649886 0.5
301 1 0.5 0.699854 0.5
302 1 0.525 0.749822 0.5
303 1 0.55 0.699854 0.5
304 1 0.575 0.749822 0.5
305 1 0.6 0.699854 0.5
306 1 0.625 0.749822 0.5
307 1 0.65 0.699854 0.5
308 1 0.675 0.749822 0.5
309 1 0.7 0.699854 0.5
310 1 0.725 0.749822 0.5
311 1 0.75 0.699854 0.5
312 1 0.775 0.749822 0.5
313 1 0.8 0.699854 0.5
314 1 0.825 0.749822 0.5
315 1 0.85 0.699854 0.5
316 1 0.875 0.749822 0.5
317 1 0.9 0.699854 0.5
318 1 0.925 0.749822 0.5
319 1 0.95 0.699854 0.5
320 1 0.975 0.749822 0.5
341 1 0.5 0.799789 0.5
342 1 0.525 0.849755 0.5
343 1 0.55 0.799789 0.5
344 1 0.575 0.849755 0.5
345 1 0.6 0.799789 0.5
346 1 0.625 0.849755 0.5
347 1 0.65 0.799789 0.5
348 1 0.675 0.849755 0.5
349 1 0.7 0.799789 0.5
350 1 0.725 0.849755 0.5
351 1 0.75 0.799789 0.5
352 1 0.775 0.849755 0.5
353 1 0.8 0.799789 0.5
354 1 0.825 0.849755 0.5
355 1 0.85 0.799789 0.5
356 1 0.875 0.849755 0.5
357 1 0.9 0.799789 0.5
358 1 0.925 0.849755 0.5
359 1 0.95 0.799789 0.5
360 1 0.975 0.849755 0.5
381 3 0.5 0.899721 0.5
382 3 0.525 0.94969 0.5
383 3 0.55 0.899721 0.5
384 3 0.575 0.94969 0.5
385 3 0.6 0.899721 0.5
386 3 0.625 0.94969 0.5
387 3 0.65 0.899721 0.5
388 3 0.675 0.94969 0.5
389 3 0.7 0.899721 0.5
390 3 0.725 0.94969 0.5
391 3 0.75 0.899721 0.5
392 3 0.775 0.94969 0.5
393 1 0.8 0.899721 0.5
394 1 0.825 0.94969 0.5
395 1 0.85 0.899721 0.5
396 1 0.875 0.94969 0.5
397 1 0.9 0.899721 0.5
398 1 0.925 0.94969 0.5
399 1 0.95 0.899721 0.5
400 1 0.975 0.94969 0.5
411 3 0.5 0.999868 0.5
412 3 0.55 0.999868 0.5
413 3 0.6 0.999868 0.5
414 3 0.65 0.999868 0.5
415 3 0.7 0.999868 0.5
416 3 0.75 0.999868 0.5
417 1 0.8 0.999868 0.5
418 1 0.85 0.999868 0.5
419 1 0.9 0.999868 0.5
420 1 0.95 0.999868 0.5
ITEM: TIMESTEP
182
ITEM: NUMBER OF ATOMS
420
ITEM: BOX BOUNDS pp ss pp
0.0000000000000000e+00 2.2653923264628304e+01
2.1918578738840608e-01 1.9399124501721968e+01
-2.8317404080785380e-01 2.8317404080785380e-01
ITEM: ATOMS id type xs ys zs
1 2 0 0.000102309 0.5
2 2 0.025 0.0502665 0.5
3 2 0.05 0.000102309 0.5
4 2 0.075 0.0502665 0.5
5 2 0.1 0.000102309 0.5
6 2 0.125 0.0502665 0.5
7 2 0.15 0.000102309 0.5
8 2 0.175 0.0502665 0.5
9 2 0.2 0.000102309 0.5
10 2 0.225 0.0502665 0.5
11 2 0.25 0.000102309 0.5
12 2 0.275 0.0502665 0.5
13 2 0.3 0.000102309 0.5
14 2 0.325 0.0502665 0.5
15 2 0.35 0.000102309 0.5
16 2 0.375 0.0502665 0.5
17 2 0.4 0.000102309 0.5
18 2 0.425 0.0502665 0.5
19 2 0.45 0.000102309 0.5
20 2 0.475 0.0502665 0.5
41 2 3.57546e-18 0.100225 0.5
42 1 0.025 0.150196 0.5
43 2 0.05 0.100225 0.5
44 1 0.075 0.150196 0.5
45 2 0.1 0.100225 0.5
46 1 0.125 0.150196 0.5
47 2 0.15 0.100225 0.5
48 1 0.175 0.150196 0.5
49 2 0.2 0.100225 0.5
50 1 0.225 0.150196 0.5
51 2 0.25 0.100225 0.5
52 1 0.275 0.150196 0.5
53 2 0.3 0.100225 0.5
54 1 0.325 0.150196 0.5
55 2 0.35 0.100225 0.5
56 1 0.375 0.150196 0.5
57 2 0.4 0.100225 0.5
58 1 0.425 0.150196 0.5
59 2 0.45 0.100225 0.5
60 1 0.475 0.150196 0.5
81 1 1.18351e-19 0.200167 0.5
82 1 0.025 0.250138 0.5
83 1 0.05 0.200167 0.5
84 1 0.075 0.250138 0.5
85 1 0.1 0.200167 0.5
86 1 0.125 0.250138 0.5
87 1 0.15 0.200167 0.5
88 1 0.175 0.250138 0.5
89 1 0.2 0.200167 0.5
90 1 0.225 0.250138 0.5
91 1 0.25 0.200167 0.5
92 1 0.275 0.250138 0.5
93 1 0.3 0.200167 0.5
94 1 0.325 0.250138 0.5
95 1 0.35 0.200167 0.5
96 1 0.375 0.250138 0.5
97 1 0.4 0.200167 0.5
98 1 0.425 0.250138 0.5
99 1 0.45 0.200167 0.5
100 1 0.475 0.250138 0.5
121 1 -2.19683e-17 0.300108 0.5
122 1 0.025 0.350079 0.5
123 1 0.05 0.300108 0.5
124 1 0.075 0.350079 0.5
125 1 0.1 0.300108 0.5
126 1 0.125 0.350079 0.5
127 1 0.15 0.300108 0.5
128 1 0.175 0.350079 0.5
129 1 0.2 0.300108 0.5
130 1 0.225 0.350079 0.5
131 1 0.25 0.300108 0.5
132 1 0.275 0.350079 0.5
133 1 0.3 0.300108 0.5
134 1 0.325 0.350079 0.5
135 1 0.35 0.300108 0.5
136 1 0.375 0.350079 0.5
137 1 0.4 0.300108 0.5
138 1 0.425 0.350079 0.5
139 1 0.45 0.300108 0.5
140 1 0.475 0.350079 0.5
161 1 3.30689e-17 0.40005 0.5
162 1 0.025 0.45002 0.5
163 1 0.05 0.40005 0.5
164 1 0.075 0.45002 0.5
165 1 0.1 0.40005 0.5
166 1 0.125 0.45002 0.5
167 1 0.15 0.40005 0.5
168 1 0.175 0.45002 0.5
169 1 0.2 0.40005 0.5
170 1 0.225 0.45002 0.5
171 1 0.25 0.40005 0.5
172 1 0.275 0.45002 0.5
173 1 0.3 0.40005 0.5
174 1 0.325 0.45002 0.5
175 1 0.35 0.40005 0.5
176 1 0.375 0.45002 0.5
177 1 0.4 0.40005 0.5
178 1 0.425 0.45002 0.5
179 1 0.45 0.40005 0.5
180 1 0.475 0.45002 0.5
201 1 1.73665e-18 0.49999 0.5
202 1 0.025 0.54996 0.5
203 1 0.05 0.49999 0.5
204 1 0.075 0.54996 0.5
205 1 0.1 0.49999 0.5
206 1 0.125 0.54996 0.5
207 1 0.15 0.49999 0.5
208 1 0.175 0.54996 0.5
209 1 0.2 0.49999 0.5
210 1 0.225 0.54996 0.5
211 1 0.25 0.49999 0.5
212 1 0.275 0.54996 0.5
213 1 0.3 0.49999 0.5
214 1 0.325 0.54996 0.5
215 1 0.35 0.49999 0.5
216 1 0.375 0.54996 0.5
217 1 0.4 0.49999 0.5
218 1 0.425 0.54996 0.5
219 1 0.45 0.49999 0.5
220 1 0.475 0.54996 0.5
241 1 1.41807e-17 0.599929 0.5
242 1 0.025 0.649898 0.5
243 1 0.05 0.599929 0.5
244 1 0.075 0.649898 0.5
245 1 0.1 0.599929 0.5
246 1 0.125 0.649898 0.5
247 1 0.15 0.599929 0.5
248 1 0.175 0.649898 0.5
249 1 0.2 0.599929 0.5
250 1 0.225 0.649898 0.5
251 1 0.25 0.599929 0.5
252 1 0.275 0.649898 0.5
253 1 0.3 0.599929 0.5
254 1 0.325 0.649898 0.5
255 1 0.35 0.599929 0.5
256 1 0.375 0.649898 0.5
257 1 0.4 0.599929 0.5
258 1 0.425 0.649898 0.5
259 1 0.45 0.599929 0.5
260 1 0.475 0.649898 0.5
281 1 1.29831e-17 0.699867 0.5
282 1 0.025 0.749836 0.5
283 1 0.05 0.699867 0.5
284 1 0.075 0.749836 0.5
285 1 0.1 0.699867 0.5
286 1 0.125 0.749836 0.5
287 1 0.15 0.699867 0.5
288 1 0.175 0.749836 0.5
289 1 0.2 0.699867 0.5
290 1 0.225 0.749836 0.5
291 1 0.25 0.699867 0.5
292 1 0.275 0.749836 0.5
293 1 0.3 0.699867 0.5
294 1 0.325 0.749836 0.5
295 1 0.35 0.699867 0.5
296 1 0.375 0.749836 0.5
297 1 0.4 0.699867 0.5
298 1 0.425 0.749836 0.5
299 1 0.45 0.699867 0.5
300 1 0.475 0.749836 0.5
321 1 -1.08513e-19 0.799804 0.5
322 1 0.025 0.849772 0.5
323 1 0.05 0.799804 0.5
324 1 0.075 0.849772 0.5
325 1 0.1 0.799804 0.5
326 1 0.125 0.849772 0.5
327 1 0.15 0.799804 0.5
328 1 0.175 0.849772 0.5
329 1 0.2 0.799804 0.5
330 1 0.225 0.849772 0.5
331 1 0.25 0.799804 0.5
332 1 0.275 0.849772 0.5
333 1 0.3 0.799804 0.5
334 1 0.325 0.849772 0.5
335 1 0.35 0.799804 0.5
336 1 0.375 0.849772 0.5
337 1 0.4 0.799804 0.5
338 1 0.425 0.849772 0.5
339 1 0.45 0.799804 0.5
340 1 0.475 0.849772 0.5
361 1 3.55601e-17 0.899739 0.5
362 1 0.025 0.949709 0.5
363 1 0.05 0.899739 0.5
364 1 0.075 0.949709 0.5
365 1 0.1 0.899739 0.5
366 1 0.125 0.949709 0.5
367 1 0.15 0.899739 0.5
368 1 0.175 0.949709 0.5
369 1 0.2 0.899739 0.5
370 1 0.225 0.949709 0.5
371 1 0.25 0.899739 0.5
372 1 0.275 0.949709 0.5
373 1 0.3 0.899739 0.5
374 1 0.325 0.949709 0.5
375 1 0.35 0.899739 0.5
376 1 0.375 0.949709 0.5
377 1 0.4 0.899739 0.5
378 1 0.425 0.949709 0.5
379 3 0.45 0.899739 0.5
380 3 0.475 0.949709 0.5
401 1 1.72796e-18 0.999889 0.5
402 1 0.05 0.999889 0.5
403 1 0.1 0.999889 0.5
404 1 0.15 0.999889 0.5
405 1 0.2 0.999889 0.5
406 1 0.25 0.999889 0.5
407 1 0.3 0.999889 0.5
408 1 0.35 0.999889 0.5
409 1 0.4 0.999889 0.5
410 3 0.45 0.999889 0.5
21 2 0.5 0.000102309 0.5
22 2 0.525 0.0502665 0.5
23 2 0.55 0.000102309 0.5
24 2 0.575 0.0502665 0.5
25 2 0.6 0.000102309 0.5
26 2 0.625 0.0502665 0.5
27 2 0.65 0.000102309 0.5
28 2 0.675 0.0502665 0.5
29 2 0.7 0.000102309 0.5
30 2 0.725 0.0502665 0.5
31 2 0.75 0.000102309 0.5
32 2 0.775 0.0502665 0.5
33 2 0.8 0.000102309 0.5
34 2 0.825 0.0502665 0.5
35 2 0.85 0.000102309 0.5
36 2 0.875 0.0502665 0.5
37 2 0.9 0.000102309 0.5
38 2 0.925 0.0502665 0.5
39 2 0.95 0.000102309 0.5
40 2 0.975 0.0502665 0.5
61 2 0.5 0.100225 0.5
62 1 0.525 0.150196 0.5
63 2 0.55 0.100225 0.5
64 1 0.575 0.150196 0.5
65 2 0.6 0.100225 0.5
66 1 0.625 0.150196 0.5
67 2 0.65 0.100225 0.5
68 1 0.675 0.150196 0.5
69 2 0.7 0.100225 0.5
70 1 0.725 0.150196 0.5
71 2 0.75 0.100225 0.5
72 1 0.775 0.150196 0.5
73 2 0.8 0.100225 0.5
74 1 0.825 0.150196 0.5
75 2 0.85 0.100225 0.5
76 1 0.875 0.150196 0.5
77 2 0.9 0.100225 0.5
78 1 0.925 0.150196 0.5
79 2 0.95 0.100225 0.5
80 1 0.975 0.150196 0.5
101 1 0.5 0.200167 0.5
102 1 0.525 0.250138 0.5
103 1 0.55 0.200167 0.5
104 1 0.575 0.250138 0.5
105 1 0.6 0.200167 0.5
106 1 0.625 0.250138 0.5
107 1 0.65 0.200167 0.5
108 1 0.675 0.250138 0.5
109 1 0.7 0.200167 0.5
110 1 0.725 0.250138 0.5
111 1 0.75 0.200167 0.5
112 1 0.775 0.250138 0.5
113 1 0.8 0.200167 0.5
114 1 0.825 0.250138 0.5
115 1 0.85 0.200167 0.5
116 1 0.875 0.250138 0.5
117 1 0.9 0.200167 0.5
118 1 0.925 0.250138 0.5
119 1 0.95 0.200167 0.5
120 1 0.975 0.250138 0.5
141 1 0.5 0.300108 0.5
142 1 0.525 0.350079 0.5
143 1 0.55 0.300108 0.5
144 1 0.575 0.350079 0.5
145 1 0.6 0.300108 0.5
146 1 0.625 0.350079 0.5
147 1 0.65 0.300108 0.5
148 1 0.675 0.350079 0.5
149 1 0.7 0.300108 0.5
150 1 0.725 0.350079 0.5
151 1 0.75 0.300108 0.5
152 1 0.775 0.350079 0.5
153 1 0.8 0.300108 0.5
154 1 0.825 0.350079 0.5
155 1 0.85 0.300108 0.5
156 1 0.875 0.350079 0.5
157 1 0.9 0.300108 0.5
158 1 0.925 0.350079 0.5
159 1 0.95 0.300108 0.5
160 1 0.975 0.350079 0.5
181 1 0.5 0.40005 0.5
182 1 0.525 0.45002 0.5
183 1 0.55 0.40005 0.5
184 1 0.575 0.45002 0.5
185 1 0.6 0.40005 0.5
186 1 0.625 0.45002 0.5
187 1 0.65 0.40005 0.5
188 1 0.675 0.45002 0.5
189 1 0.7 0.40005 0.5
190 1 0.725 0.45002 0.5
191 1 0.75 0.40005 0.5
192 1 0.775 0.45002 0.5
193 1 0.8 0.40005 0.5
194 1 0.825 0.45002 0.5
195 1 0.85 0.40005 0.5
196 1 0.875 0.45002 0.5
197 1 0.9 0.40005 0.5
198 1 0.925 0.45002 0.5
199 1 0.95 0.40005 0.5
200 1 0.975 0.45002 0.5
221 1 0.5 0.49999 0.5
222 1 0.525 0.54996 0.5
223 1 0.55 0.49999 0.5
224 1 0.575 0.54996 0.5
225 1 0.6 0.49999 0.5
226 1 0.625 0.54996 0.5
227 1 0.65 0.49999 0.5
228 1 0.675 0.54996 0.5
229 1 0.7 0.49999 0.5
230 1 0.725 0.54996 0.5
231 1 0.75 0.49999 0.5
232 1 0.775 0.54996 0.5
233 1 0.8 0.49999 0.5
234 1 0.825 0.54996 0.5
235 1 0.85 0.49999 0.5
236 1 0.875 0.54996 0.5
237 1 0.9 0.49999 0.5
238 1 0.925 0.54996 0.5
239 1 0.95 0.49999 0.5
240 1 0.975 0.54996 0.5
261 1 0.5 0.599929 0.5
262 1 0.525 0.649898 0.5
263 1 0.55 0.599929 0.5
264 1 0.575 0.649898 0.5
265 1 0.6 0.599929 0.5
266 1 0.625 0.649898 0.5
267 1 0.65 0.599929 0.5
268 1 0.675 0.649898 0.5
269 1 0.7 0.599929 0.5
270 1 0.725 0.649898 0.5
271 1 0.75 0.599929 0.5
272 1 0.775 0.649898 0.5
273 1 0.8 0.599929 0.5
274 1 0.825 0.649898 0.5
275 1 0.85 0.599929 0.5
276 1 0.875 0.649898 0.5
277 1 0.9 0.599929 0.5
278 1 0.925 0.649898 0.5
279 1 0.95 0.599929 0.5
280 1 0.975 0.649898 0.5
301 1 0.5 0.699867 0.5
302 1 0.525 0.749836 0.5
303 1 0.55 0.699867 0.5
304 1 0.575 0.749836 0.5
305 1 0.6 0.699867 0.5
306 1 0.625 0.749836 0.5
307 1 0.65 0.699867 0.5
308 1 0.675 0.749836 0.5
309 1 0.7 0.699867 0.5
310 1 0.725 0.749836 0.5
311 1 0.75 0.699867 0.5
312 1 0.775 0.749836 0.5
313 1 0.8 0.699867 0.5
314 1 0.825 0.749836 0.5
315 1 0.85 0.699867 0.5
316 1 0.875 0.749836 0.5
317 1 0.9 0.699867 0.5
318 1 0.925 0.749836 0.5
319 1 0.95 0.699867 0.5
320 1 0.975 0.749836 0.5
341 1 0.5 0.799804 0.5
342 1 0.525 0.849772 0.5
343 1 0.55 0.799804 0.5
344 1 0.575 0.849772 0.5
345 1 0.6 0.799804 0.5
346 1 0.625 0.849772 0.5
347 1 0.65 0.799804 0.5
348 1 0.675 0.849772 0.5