ITEM: TIMESTEP
0
ITEM: NUMBER OF ATOMS
420
ITEM: BOX BOUNDS pp ss pp
0.0000000000000000e+00 2.2653923264628304e+01
2.1918578738840608e-01 1.9800514536806176e+01
-2.8317404080785380e-01 2.8317404080785380e-01
ITEM: ATOMS id type xs ys zs
1 2 0 0.000100212 0.5
2 2 0.025 0.0492361 0.5
3 2 0.05 0.000100212 0.5
4 2 0.075 0.0492361 0.5
5 2 0.1 0.000100212 0.5
6 2 0.125 0.0492361 0.5
7 2 0.15 0.000100212 0.5
8 2 0.175 0.0492361 0.5
9 2 0.2 0.000100212 0.5
10 2 0.225 0.0492361 0.5
11 2 0.25 0.000100212 0.5
12 2 0.275 0.0492361 0.5
13 2 0.3 0.000100212 0.5
14 2 0.325 0.0492361 0.5
15 2 0.35 0.000100212 0.5
16 2 0.375 0.0492361 0.5
17 2 0.4 0.000100212 0.5
18 2 0.425 0.0492361 0.5
19 2 0.45 0.000100212 0.5
20 2 0.475 0.0492361 0.5
41 2 3.57546e-18 0.0981705 0.5
42 1 0.025 0.147096 0.5
43 2 0.05 0.0981705 0.5
44 1 0.075 0.147096 0.5
45 2 0.1 0.0981705 0.5
46 1 0.125 0.147096 0.5
47 2 0.15 0.0981705 0.5
48 1 0.175 0.147096 0.5
49 2 0.2 0.0981705 0.5
50 1 0.225 0.147096 0.5
51 2 0.25 0.0981705 0.5
52 1 0.275 0.147096 0.5
53 2 0.3 0.0981705 0.5
54 1 0.325 0.147096 0.5
55 2 0.35 0.0981705 0.5
56 1 0.375 0.147096 0.5
57 2 0.4 0.0981705 0.5
58 1 0.425 0.147096 0.5
59 2 0.45 0.0981705 0.5
60 1 0.475 0.147096 0.5
81 1 2.74429e-20 0.196045 0.5
82 1 0.025 0.244992 0.5
83 1 0.05 0.196045 0.5
84 1 0.075 0.244992 0.5
85 1 0.1 0.196045 0.5
86 1 0.125 0.244992 0.5
87 1 0.15 0.196045 0.5
88 1 0.175 0.244992 0.5
89 1 0.2 0.196045 0.5
90 1 0.225 0.244992 0.5
91 1 0.25 0.196045 0.5
92 1 0.275 0.244992 0.5
93 1 0.3 0.196045 0.5
94 1 0.325 0.244992 0.5
95 1 0.35 0.196045 0.5
96 1 0.375 0.244992 0.5
97 1 0.4 0.196045 0.5
98 1 0.425 0.244992 0.5
99 1 0.45 0.196045 0.5
100 1 0.475 0.244992 0.5
121 1 0 0.293946 0.5
122 1 0.025 0.342904 0.5
123 1 0.05 0.293946 0.5
124 1 0.075 0.342904 0.5
125 1 0.1 0.293946 0.5
126 1 0.125 0.342904 0.5
127 1 0.15 0.293946 0.5
128 1 0.175 0.342904 0.5
129 1 0.2 0.293946 0.5
130 1 0.225 0.342904 0.5
131 1 0.25 0.293946 0.5
132 1 0.275 0.342904 0.5
133 1 0.3 0.293946 0.5
134 1 0.325 0.342904 0.5
135 1 0.35 0.293946 0.5
136 1 0.375 0.342904 0.5
137 1 0.4 0.293946 0.5
138 1 0.425 0.342904 0.5
139 1 0.45 0.293946 0.5
140 1 0.475 0.342904 0.5
161 1 0 0.391856 0.5
162 1 0.025 0.440809 0.5
163 1 0.05 0.391856 0.5
164 1 0.075 0.440809 0.5
165 1 0.1 0.391856 0.5
166 1 0.125 0.440809 0.5
167 1 0.15 0.391856 0.5
168 1 0.175 0.440809 0.5
169 1 0.2 0.391856 0.5
170 1 0.225 0.440809 0.5
171 1 0.25 0.391856 0.5
172 1 0.275 0.440809 0.5
173 1 0.3 0.391856 0.5
174 1 0.325 0.440809 0.5
175 1 0.35 0.391856 0.5
176 1 0.375 0.440809 0.5
177 1 0.4 0.391856 0.5
178 1 0.425 0.440809 0.5
179 1 0.45 0.391856 0.5
180 1 0.475 0.440809 0.5
201 1 0 0.489765 0.5
202 1 0.025 0.538721 0.5
203 1 0.05 0.489765 0.5
204 1 0.075 0.538721 0.5
205 1 0.1 0.489765 0.5
206 1 0.125 0.538721 0.5
207 1 0.15 0.489765 0.5
208 1 0.175 0.538721 0.5
209 1 0.2 0.489765 0.5
210 1 0.225 0.538721 0.5
211 1 0.25 0.489765 0.5
212 1 0.275 0.538721 0.5
213 1 0.3 0.489765 0.5
214 1 0.325 0.538721 0.5
215 1 0.35 0.489765 0.5
216 1 0.375 0.538721 0.5
217 1 0.4 0.489765 0.5
218 1 0.425 0.538721 0.5
219 1 0.45 0.489765 0.5
220 1 0.475 0.538721 0.5
241 1 0 0.587674 0.5
242 1 0.025 0.636626 0.5
243 1 0.05 0.587674 0.5
244 1 0.075 0.636626 0.5
245 1 0.1 0.587674 0.5
246 1 0.125 0.636626 0.5
247 1 0.15 0.587674 0.5
248 1 0.175 0.636626 0.5
249 1 0.2 0.587674 0.5
250 1 0.225 0.636626 0.5
251 1 0.25 0.587674 0.5
252 1 0.275 0.636626 0.5
253 1 0.3 0.587674 0.5
254 1 0.325 0.636626 0.5
255 1 0.35 0.587674 0.5
256 1 0.375 0.636626 0.5
257 1 0.4 0.587674 0.5
258 1 0.425 0.636626 0.5
259 1 0.45 0.587674 0.5
260 1 0.475 0.636626 0.5
281 1 2.18851e-18 0.685584 0.5
282 1 0.025 0.734538 0.5
283 1 0.05 0.685584 0.5
284 1 0.075 0.734538 0.5
285 1 0.1 0.685584 0.5
286 1 0.125 0.734538 0.5
287 1 0.15 0.685584 0.5
288 1 0.175 0.734538 0.5
289 1 0.2 0.685584 0.5
290 1 0.225 0.734538 0.5
291 1 0.25 0.685584 0.5
292 1 0.275 0.734538 0.5
293 1 0.3 0.685584 0.5
294 1 0.325 0.734538 0.5
295 1 0.35 0.685584 0.5
296 1 0.375 0.734538 0.5
297 1 0.4 0.685584 0.5
298 1 0.425 0.734538 0.5
299 1 0.45 0.685584 0.5
300 1 0.475 0.734538 0.5
321 1 0 0.783485 0.5
322 1 0.025 0.832434 0.5
323 1 0.05 0.783485 0.5
324 1 0.075 0.832434 0.5
325 1 0.1 0.783485 0.5
326 1 0.125 0.832434 0.5
327 1 0.15 0.783485 0.5
328 1 0.175 0.832434 0.5
329 1 0.2 0.783485 0.5
330 1 0.225 0.832434 0.5
331 1 0.25 0.783485 0.5
332 1 0.275 0.832434 0.5
333 1 0.3 0.783485 0.5
334 1 0.325 0.832434 0.5
335 1 0.35 0.783485 0.5
336 1 0.375 0.832434 0.5
337 1 0.4 0.783485 0.5
338 1 0.425 0.832434 0.5
339 1 0.45 0.783485 0.5
340 1 0.475 0.832434 0.5
361 1 5.74281e-19 0.88136 0.5
362 1 0.025 0.930294 0.5
363 1 0.05 0.88136 0.5
364 1 0.075 0.930294 0.5
365 1 0.1 0.88136 0.5
366 1 0.125 0.930294 0.5
367 1 0.15 0.88136 0.5
368 1 0.175 0.930294 0.5
369 1 0.2 0.88136 0.5
370 1 0.225 0.930294 0.5
371 1 0.25 0.88136 0.5
372 1 0.275 0.930294 0.5
373 1 0.3 0.88136 0.5
374 1 0.325 0.930294 0.5
375 1 0.35 0.88136 0.5
376 1 0.375 0.930294 0.5
377 1 0.4 0.88136 0.5
378 1 0.425 0.930294 0.5
379 3 0.45 0.88136 0.5
380 3 0.475 0.930294 0.5
401 1 3.60804e-19 0.97943 0.5
402 1 0.05 0.97943 0.5
403 1 0.1 0.97943 0.5
404 1 0.15 0.97943 0.5
405 1 0.2 0.97943 0.5
406 1 0.25 0.97943 0.5
407 1 0.3 0.97943 0.5
408 1 0.35 0.97943 0.5
409 1 0.4 0.97943 0.5
410 3 0.45 0.97943 0.5
21 2 0.5 0.000100212 0.5
22 2 0.525 0.0492361 0.5
23 2 0.55 0.000100212 0.5
24 2 0.575 0.0492361 0.5
25 2 0.6 0.000100212 0.5
26 2 0.625 0.0492361 0.5
27 2 0.65 0.000100212 0.5
28 2 0.675 0.0492361 0.5
29 2 0.7 0.000100212 0.5
30 2 0.725 0.0492361 0.5
31 2 0.75 0.000100212 0.5
32 2 0.775 0.0492361 0.5
33 2 0.8 0.000100212 0.5
34 2 0.825 0.0492361 0.5
35 2 0.85 0.000100212 0.5
36 2 0.875 0.0492361 0.5
37 2 0.9 0.000100212 0.5
38 2 0.925 0.0492361 0.5
39 2 0.95 0.000100212 0.5
40 2 0.975 0.0492361 0.5
61 2 0.5 0.0981705 0.5
62 1 0.525 0.147096 0.5
63 2 0.55 0.0981705 0.5
64 1 0.575 0.147096 0.5
65 2 0.6 0.0981705 0.5
66 1 0.625 0.147096 0.5
67 2 0.65 0.0981705 0.5
68 1 0.675 0.147096 0.5
69 2 0.7 0.0981705 0.5
70 1 0.725 0.147096 0.5
71 2 0.75 0.0981705 0.5
72 1 0.775 0.147096 0.5
73 2 0.8 0.0981705 0.5
74 1 0.825 0.147096 0.5
75 2 0.85 0.0981705 0.5
76 1 0.875 0.147096 0.5
77 2 0.9 0.0981705 0.5
78 1 0.925 0.147096 0.5
79 2 0.95 0.0981705 0.5
80 1 0.975 0.147096 0.5
101 1 0.5 0.196045 0.5
102 1 0.525 0.244992 0.5
103 1 0.55 0.196045 0.5
104 1 0.575 0.244992 0.5
105 1 0.6 0.196045 0.5
106 1 0.625 0.244992 0.5
107 1 0.65 0.196045 0.5
108 1 0.675 0.244992 0.5
109 1 0.7 0.196045 0.5
110 1 0.725 0.244992 0.5
111 1 0.75 0.196045 0.5
112 1 0.775 0.244992 0.5
113 1 0.8 0.196045 0.5
114 1 0.825 0.244992 0.5
115 1 0.85 0.196045 0.5
116 1 0.875 0.244992 0.5
117 1 0.9 0.196045 0.5
118 1 0.925 0.244992 0.5
119 1 0.95 0.196045 0.5
120 1 0.975 0.244992 0.5
141 1 0.5 0.293946 0.5
142 1 0.525 0.342904 0.5
143 1 0.55 0.293946 0.5
144 1 0.575 0.342904 0.5
145 1 0.6 0.293946 0.5
146 1 0.625 0.342904 0.5
147 1 0.65 0.293946 0.5
148 1 0.675 0.342904 0.5
149 1 0.7 0.293946 0.5
150 1 0.725 0.342904 0.5
151 1 0.75 0.293946 0.5
152 1 0.775 0.342904 0.5
153 1 0.8 0.293946 0.5
154 1 0.825 0.342904 0.5
155 1 0.85 0.293946 0.5
156 1 0.875 0.342904 0.5
157 1 0.9 0.293946 0.5
158 1 0.925 0.342904 0.5
159 1 0.95 0.293946 0.5
160 1 0.975 0.342904 0.5
181 1 0.5 0.391856 0.5
182 1 0.525 0.440809 0.5
183 1 0.55 0.391856 0.5
184 1 0.575 0.440809 0.5
185 1 0.6 0.391856 0.5
186 1 0.625 0.440809 0.5
187 1 0.65 0.391856 0.5
188 1 0.675 0.440809 0.5
189 1 0.7 0.391856 0.5
190 1 0.725 0.440809 0.5
191 1 0.75 0.391856 0.5
192 1 0.775 0.440809 0.5
193 1 0.8 0.391856 0.5
194 1 0.825 0.440809 0.5
195 1 0.85 0.391856 0.5
196 1 0.875 0.440809 0.5
197 1 0.9 0.391856 0.5
198 1 0.925 0.440809 0.5
199 1 0.95 0.391856 0.5
200 1 0.975 0.440809 0.5
221 1 0.5 0.489765 0.5
222 1 0.525 0.538721 0.5
223 1 0.55 0.489765 0.5
224 1 0.575 0.538721 0.5
225 1 0.6 0.489765 0.5
226 1 0.625 0.538721 0.5
227 1 0.65 0.489765 0.5
228 1 0.675 0.538721 0.5
229 1 0.7 0.489765 0.5
230 1 0.725 0.538721 0.5
231 1 0.75 0.489765 0.5
232 1 0.775 0.538721 0.5
233 1 0.8 0.489765 0.5
234 1 0.825 0.538721 0.5
235 1 0.85 0.489765 0.5
236 1 0.875 0.538721 0.5
237 1 0.9 0.489765 0.5
238 1 0.925 0.538721 0.5
239 1 0.95 0.489765 0.5
240 1 0.975 0.538721 0.5
261 1 0.5 0.587674 0.5
262 1 0.525 0.636626 0.5
263 1 0.55 0.587674 0.5
264 1 0.575 0.636626 0.5
265 1 0.6 0.587674 0.5
266 1 0.625 0.636626 0.5
267 1 0.65 0.587674 0.5
268 1 0.675 0.636626 0.5
269 1 0.7 0.587674 0.5
270 1 0.725 0.636626 0.5
271 1 0.75 0.587674 0.5
272 1 0.775 0.636626 0.5
273 1 0.8 0.587674 0.5
274 1 0.825 0.636626 0.5
275 1 0.85 0.587674 0.5
276 1 0.875 0.636626 0.5
277 1 0.9 0.587674 0.5
278 1 0.925 0.636626 0.5
279 1 0.95 0.587674 0.5
280 1 0.975 0.636626 0.5
301 1 0.5 0.685584 0.5
302 1 0.525 0.734538 0.5
303 1 0.55 0.685584 0.5
304 1 0.575 0.734538 0.5
305 1 0.6 0.685584 0.5
306 1 0.625 0.734538 0.5
307 1 0.65 0.685584 0.5
308 1 0.675 0.734538 0.5
309 1 0.7 0.685584 0.5
310 1 0.725 0.734538 0.5
311 1 0.75 0.685584 0.5
312 1 0.775 0.734538 0.5
313 1 0.8 0.685584 0.5
314 1 0.825 0.734538 0.5
315 1 0.85 0.685584 0.5
316 1 0.875 0.734538 0.5
317 1 0.9 0.685584 0.5
318 1 0.925 0.734538 0.5
319 1 0.95 0.685584 0.5
320 1 0.975 0.734538 0.5
341 1 0.5 0.783485 0.5
342 1 0.525 0.832434 0.5
343 1 0.55 0.783485 0.5
344 1 0.575 0.832434 0.5
345 1 0.6 0.783485 0.5
346 1 0.625 0.832434 0.5
347 1 0.65 0.783485 0.5
348 1 0.675 0.832434 0.5
349 1 0.7 0.783485 0.5
350 1 0.725 0.832434 0.5
351 1 0.75 0.783485 0.5
352 1 0.775 0.832434 0.5
353 1 0.8 0.783485 0.5
354 1 0.825 0.832434 0.5
355 1 0.85 0.783485 0.5
356 1 0.875 0.832434 0.5
357 1 0.9 0.783485 0.5
358 1 0.925 0.832434 0.5
359 1 0.95 0.783485 0.5
360 1 0.975 0.832434 0.5
381 3 0.5 0.88136 0.5
382 3 0.525 0.930294 0.5
383 3 0.55 0.88136 0.5
384 3 0.575 0.930294 0.5
385 3 0.6 0.88136 0.5
386 3 0.625 0.930294 0.5
387 3 0.65 0.88136 0.5
388 3 0.675 0.930294 0.5
389 3 0.7 0.88136 0.5
390 3 0.725 0.930294 0.5
391 3 0.75 0.88136 0.5
392 3 0.775 0.930294 0.5
393 1 0.8 0.88136 0.5
394 1 0.825 0.930294 0.5
395 1 0.85 0.88136 0.5
396 1 0.875 0.930294 0.5
397 1 0.9 0.88136 0.5
398 1 0.925 0.930294 0.5
399 1 0.95 0.88136 0.5
400 1 0.975 0.930294 0.5
411 3 0.5 0.97943 0.5
412 3 0.574725 0.9999 0.5
413 3 0.6 0.97943 0.5
414 3 0.65 0.97943 0.5
415 3 0.7 0.97943 0.5
416 3 0.75 0.97943 0.5
417 1 0.8 0.97943 0.5
418 1 0.85 0.97943 0.5
419 1 0.9 0.97943 0.5
420 1 0.95 0.97943 0.5
ITEM: TIMESTEP
150
ITEM: NUMBER OF ATOMS
420
ITEM: BOX BOUNDS pp ss pp
0.0000000000000000e+00 2.2653923264628304e+01
2.1918578738840608e-01 2.0031197295119284e+01
-2.8317404080785380e-01 2.8317404080785380e-01
ITEM: ATOMS id type xs ys zs
1 2 0 9.90449e-05 0.5
2 2 0.025 0.0486628 0.5
3 2 0.05 9.90449e-05 0.5
4 2 0.075 0.0486628 0.5
5 2 0.1 9.90449e-05 0.5
6 2 0.125 0.0486628 0.5
7 2 0.15 9.90449e-05 0.5
8 2 0.175 0.0486628 0.5
9 2 0.2 9.90449e-05 0.5
10 2 0.225 0.0486628 0.5
11 2 0.25 9.90449e-05 0.5
12 2 0.275 0.0486628 0.5
13 2 0.3 9.90449e-05 0.5
14 2 0.325 0.0486628 0.5
15 2 0.35 9.90449e-05 0.5
16 2 0.375 0.0486628 0.5
17 2 0.4 9.90449e-05 0.5
18 2 0.425 0.0486628 0.5
19 2 0.45 9.90449e-05 0.5
20 2 0.475 0.0486628 0.5
41 2 3.57546e-18 0.0970274 0.5
42 1 0.0250068 0.145403 0.5
43 2 0.05 0.0970274 0.5
44 1 0.0750083 0.145403 0.5
45 2 0.1 0.0970274 0.5
46 1 0.125009 0.145404 0.5
47 2 0.15 0.0970274 0.5
48 1 0.17501 0.145406 0.5
49 2 0.2 0.0970274 0.5
50 1 0.22501 0.145407 0.5
51 2 0.25 0.0970274 0.5
52 1 0.275009 0.145408 0.5
53 2 0.3 0.0970274 0.5
54 1 0.325007 0.145409 0.5
55 2 0.35 0.0970274 0.5
56 1 0.375006 0.145409 0.5
57 2 0.4 0.0970274 0.5
58 1 0.425004 0.145409 0.5
59 2 0.45 0.0970274 0.5
60 1 0.475002 0.145409 0.5
81 1 1.18106e-05 0.193777 0.5
82 1 0.0250203 0.24215 0.5
83 1 0.0500149 0.193778 0.5
84 1 0.0750242 0.242153 0.5
85 1 0.100017 0.19378 0.5
86 1 0.125027 0.242157 0.5
87 1 0.150019 0.193782 0.5
88 1 0.175028 0.242162 0.5
89 1 0.200019 0.193785 0.5
90 1 0.225028 0.242167 0.5
91 1 0.250018 0.193788 0.5
92 1 0.275026 0.242171 0.5
93 1 0.300016 0.19379 0.5
94 1 0.325022 0.242175 0.5
95 1 0.350013 0.193792 0.5
96 1 0.375018 0.242177 0.5
97 1 0.40001 0.193793 0.5
98 1 0.425012 0.242178 0.5
99 1 0.450006 0.193793 0.5
100 1 0.475007 0.242178 0.5
301 1 0.50013 0.677801 0.5
122 1 0.0250362 0.338893 0.5
123 1 0.0500304 0.290525 0.5
124 1 0.0750418 0.3389 0.5
125 1 0.100035 0.29053 0.5
126 1 0.125046 0.338908 0.5
127 1 0.150037 0.290537 0.5
128 1 0.175048 0.338918 0.5
129 1 0.200038 0.290544 0.5
130 1 0.225048 0.338928 0.5
131 1 0.250036 0.290551 0.5
132 1 0.275045 0.338937 0.5
133 1 0.300033 0.290557 0.5
134 1 0.325041 0.338946 0.5
135 1 0.350028 0.290562 0.5
136 1 0.375034 0.338951 0.5
137 1 0.400022 0.290564 0.5
138 1 0.425026 0.338954 0.5
139 1 0.450015 0.290565 0.5
140 1 0.475017 0.338954 0.5
410 3 0.449872 0.968341 0.5
162 1 0.0250562 0.435631 0.5
163 1 0.0500489 0.387267 0.5
164 1 0.0750627 0.435642 0.5
165 1 0.100054 0.387277 0.5
166 1 0.125067 0.435656 0.5
167 1 0.150058 0.387289 0.5
168 1 0.175071 0.435672 0.5
169 1 0.200059 0.387302 0.5
170 1 0.225072 0.435689 0.5
171 1 0.250059 0.387315 0.5
172 1 0.27507 0.435706 0.5
173 1 0.300055 0.387328 0.5
174 1 0.325066 0.435721 0.5
175 1 0.350049 0.387337 0.5
176 1 0.375059 0.435733 0.5
177 1 0.400041 0.387344 0.5
178 1 0.425048 0.435739 0.5
179 1 0.45003 0.387346 0.5
180 1 0.475035 0.43574 0.5
201 1 6.42678e-05 0.483994 0.5
202 1 0.025081 0.532365 0.5
203 1 0.0500713 0.484005 0.5
204 1 0.0750861 0.53238 0.5
205 1 0.100077 0.48402 0.5
206 1 0.12509 0.5324 0.5
207 1 0.150081 0.484038 0.5
208 1 0.175094 0.532423 0.5
209 1 0.200084 0.484059 0.5
210 1 0.225098 0.532448 0.5
211 1 0.250085 0.48408 0.5
212 1 0.2751 0.532475 0.5
213 1 0.300084 0.484101 0.5
214 1 0.325099 0.532501 0.5
215 1 0.350079 0.484119 0.5
216 1 0.375093 0.532523 0.5
217 1 0.400069 0.484133 0.5
218 1 0.425082 0.532538 0.5
219 1 0.450056 0.484139 0.5
220 1 0.475065 0.532542 0.5
409 1 0.399938 0.968198 0.5
242 1 0.0251089 0.629096 0.5
243 1 0.0500965 0.580739 0.5
244 1 0.0751092 0.629117 0.5
245 1 0.100099 0.58076 0.5
246 1 0.12511 0.629142 0.5
247 1 0.150103 0.580784 0.5
248 1 0.175113 0.629169 0.5
249 1 0.200107 0.580811 0.5
250 1 0.225119 0.6292 0.5
251 1 0.250112 0.580841 0.5
252 1 0.275127 0.629236 0.5
253 1 0.300116 0.580873 0.5
254 1 0.325134 0.629277 0.5
255 1 0.350117 0.580906 0.5
256 1 0.375137 0.629318 0.5
257 1 0.400111 0.580933 0.5
258 1 0.425131 0.629352 0.5
259 1 0.450096 0.58095 0.5
260 1 0.475112 0.62937 0.5
408 1 0.349981 0.968116 0.5
282 1 0.0251355 0.725833 0.5
283 1 0.0501208 0.677475 0.5
284 1 0.075127 0.725857 0.5
285 1 0.100118 0.677499 0.5
286 1 0.125122 0.725883 0.5
287 1 0.150118 0.677526 0.5
288 1 0.175121 0.725911 0.5
289 1 0.200121 0.677556 0.5
290 1 0.225125 0.725944 0.5
291 1 0.250129 0.677592 0.5
292 1 0.275136 0.725985 0.5
293 1 0.300141 0.677635 0.5
294 1 0.325153 0.726036 0.5
295 1 0.350154 0.677686 0.5
296 1 0.375174 0.726101 0.5
297 1 0.400161 0.67774 0.5
298 1 0.425189 0.726175 0.5
299 1 0.450155 0.677784 0.5
300 1 0.475182 0.726233 0.5
321 1 0.000154577 0.774193 0.5
322 1 0.0251542 0.82258 0.5
323 1 0.0501389 0.774217 0.5
324 1 0.0751344 0.822605 0.5
325 1 0.100127 0.774242 0.5
326 1 0.12512 0.822629 0.5
327 1 0.150119 0.774268 0.5
328 1 0.175111 0.822654 0.5
329 1 0.200118 0.774297 0.5
330 1 0.225108 0.822683 0.5
331 1 0.250124 0.774332 0.5
332 1 0.275114 0.82272 0.5
333 1 0.300138 0.774377 0.5
334 1 0.325129 0.822771 0.5
335 1 0.350161 0.77444 0.5
336 1 0.375159 0.822846 0.5
337 1 0.400193 0.774525 0.5
338 1 0.425204 0.82296 0.5
339 1 0.450221 0.774632 0.5
340 1 0.475257 0.823122 0.5
361 1 0.000172811 0.870947 0.5
362 1 0.0251568 0.919344 0.5
363 1 0.0501446 0.870971 0.5
364 1 0.0751274 0.919365 0.5
365 1 0.100122 0.870994 0.5
366 1 0.125104 0.919386 0.5
367 1 0.150106 0.871017 0.5
368 1 0.175085 0.919407 0.5
369 1 0.200095 0.871041 0.5
370 1 0.22507 0.919431 0.5
371 1 0.250089 0.87107 0.5
372 1 0.275058 0.919461 0.5
373 1 0.300091 0.871108 0.5
374 1 0.325049 0.919504 0.5
375 1 0.350103 0.871166 0.5
376 1 0.375046 0.91957 0.5
377 1 0.400132 0.871256 0.5
378 1 0.425056 0.919678 0.5
379 3 0.45019 0.871408 0.5
380 3 0.475105 0.919906 0.5
401 1 0.000169278 0.967924 0.5
402 1 0.0501334 0.967944 0.5
403 1 0.100105 0.967963 0.5
404 1 0.150081 0.967982 0.5
405 1 0.200059 0.968003 0.5
406 1 0.250037 0.968029 0.5
407 1 0.300012 0.968064 0.5
221 1 0.50004 0.484136 0.5
261 1 0.500075 0.580951 0.5
341 1 0.500214 0.774709 0.5
21 2 0.5 9.90449e-05 0.5
22 2 0.525 0.0486628 0.5
23 2 0.55 9.90449e-05 0.5
24 2 0.575 0.0486628 0.5
25 2 0.6 9.90449e-05 0.5
26 2 0.625 0.0486628 0.5
27 2 0.65 9.90449e-05 0.5
28 2 0.675 0.0486628 0.5
29 2 0.7 9.90449e-05 0.5
30 2 0.725 0.0486628 0.5
31 2 0.75 9.90449e-05 0.5
32 2 0.775 0.0486628 0.5
33 2 0.8 9.90449e-05 0.5
34 2 0.825 0.0486628 0.5
35 2 0.85 9.90449e-05 0.5
36 2 0.875 0.0486628 0.5
37 2 0.9 9.90449e-05 0.5
38 2 0.925 0.0486628 0.5
39 2 0.95 9.90449e-05 0.5
40 2 0.975 0.0486628 0.5
61 2 0.5 0.0970274 0.5
62 1 0.525 0.145409 0.5
63 2 0.55 0.0970274 0.5
64 1 0.574998 0.145408 0.5
65 2 0.6 0.0970274 0.5
66 1 0.624997 0.145408 0.5
67 2 0.65 0.0970274 0.5
68 1 0.674997 0.145407 0.5
69 2 0.7 0.0970274 0.5
70 1 0.724997 0.145406 0.5
71 2 0.75 0.0970274 0.5
72 1 0.774998 0.145405 0.5
73 2 0.8 0.0970274 0.5
74 1 0.824999 0.145404 0.5
75 2 0.85 0.0970274 0.5
76 1 0.875001 0.145403 0.5
77 2 0.9 0.0970274 0.5
78 1 0.925003 0.145403 0.5
79 2 0.95 0.0970274 0.5
80 1 0.975005 0.145403 0.5
101 1 0.500002 0.193792 0.5
102 1 0.525002 0.242176 0.5
103 1 0.549999 0.193791 0.5
104 1 0.574998 0.242174 0.5
105 1 0.599997 0.193789 0.5
106 1 0.624995 0.24217 0.5
107 1 0.649995 0.193787 0.5
108 1 0.674994 0.242166 0.5
109 1 0.699995 0.193785 0.5
110 1 0.724994 0.242161 0.5
111 1 0.749996 0.193782 0.5
112 1 0.774997 0.242157 0.5
113 1 0.799998 0.19378 0.5
114 1 0.825 0.242154 0.5
115 1 0.850001 0.193778 0.5
116 1 0.875005 0.242151 0.5
117 1 0.900004 0.193777 0.5
118 1 0.92501 0.242149 0.5
119 1 0.950008 0.193776 0.5
120 1 0.975016 0.242149 0.5
141 1 0.500008 0.290564 0.5
142 1 0.525009 0.33895 0.5
143 1 0.550002 0.29056 0.5
144 1 0.575001 0.338944 0.5
145 1 0.599997 0.290555 0.5
146 1 0.624996 0.338936 0.5
147 1 0.649994 0.290549 0.5
148 1 0.674994 0.338927 0.5
149 1 0.699994 0.290543 0.5
150 1 0.724995 0.338917 0.5
151 1 0.749996 0.290536 0.5
152 1 0.774999 0.338907 0.5
153 1 0.799999 0.290529 0.5
154 1 0.825005 0.338899 0.5
155 1 0.850005 0.290524 0.5
156 1 0.875013 0.338893 0.5
157 1 0.900012 0.290521 0.5
158 1 0.925021 0.33889 0.5
159 1 0.950018 0.29052 0.5
160 1 0.975029 0.33889 0.5
181 1 0.500019 0.387343 0.5
182 1 0.525022 0.435734 0.5
183 1 0.550009 0.387337 0.5
184 1 0.57501 0.435724 0.5
185 1 0.600001 0.387327 0.5
186 1 0.625002 0.435708 0.5
187 1 0.649997 0.387315 0.5
188 1 0.674999 0.43569 0.5
189 1 0.699996 0.387301 0.5
190 1 0.725 0.435672 0.5
191 1 0.749999 0.387287 0.5
192 1 0.775006 0.435654 0.5
193 1 0.800005 0.387275 0.5
194 1 0.825016 0.435639 0.5
195 1 0.850014 0.387265 0.5
196 1 0.875027 0.435628 0.5
197 1 0.900024 0.387259 0.5
198 1 0.925038 0.435624 0.5
199 1 0.950033 0.387258 0.5
200 1 0.975048 0.435625 0.5
418 1 0.850355 0.967864 0.5
222 1 0.525046 0.532536 0.5
223 1 0.550025 0.484126 0.5
224 1 0.575027 0.532518 0.5
225 1 0.600012 0.484109 0.5
226 1 0.625015 0.532491 0.5
227 1 0.650004 0.484086 0.5
228 1 0.67501 0.532458 0.5
229 1 0.700003 0.484061 0.5
230 1 0.725013 0.532424 0.5
231 1 0.750009 0.484036 0.5
232 1 0.775024 0.532393 0.5
233 1 0.800019 0.484014 0.5
234 1 0.825038 0.532368 0.5
235 1 0.850031 0.483998 0.5
236 1 0.875052 0.532354 0.5
237 1 0.900044 0.483989 0.5
238 1 0.925065 0.53235 0.5
239 1 0.950055 0.483988 0.5
240 1 0.975074 0.532354 0.5
417 1 0.800461 0.967853 0.5
262 1 0.525085 0.629365 0.5
263 1 0.550051 0.580936 0.5
264 1 0.575056 0.629337 0.5
265 1 0.600031 0.580906 0.5
266 1 0.625037 0.629289 0.5
267 1 0.65002 0.580866 0.5
268 1 0.675033 0.629229 0.5
269 1 0.700021 0.58082 0.5
270 1 0.725044 0.629167 0.5
271 1 0.750032 0.580776 0.5
272 1 0.775063 0.629116 0.5
273 1 0.800048 0.580741 0.5
274 1 0.825082 0.629084 0.5
275 1 0.850065 0.580719 0.5
276 1 0.875096 0.62907 0.5
277 1 0.900078 0.58071 0.5
278 1 0.925104 0.62907 0.5
279 1 0.950087 0.580713 0.5
280 1 0.975108 0.62908 0.5
420 1 0.950215 0.967903 0.5
302 1 0.525148 0.726246 0.5
303 1 0.550094 0.677784 0.5
304 1 0.575104 0.726201 0.5
305 1 0.600063 0.677731 0.5
306 1 0.625079 0.726107 0.5
307 1 0.650051 0.677655 0.5
308 1 0.675086 0.725989 0.5
309 1 0.700061 0.677569 0.5
310 1 0.725119 0.72588 0.5
311 1 0.750086 0.677495 0.5
312 1 0.775146 0.725815 0.5
313 1 0.800108 0.677449 0.5
314 1 0.825159 0.725786 0.5
315 1 0.850122 0.677428 0.5
316 1 0.87516 0.725782 0.5
317 1 0.900128 0.677426 0.5
318 1 0.925155 0.725792 0.5
319 1 0.950128 0.677436 0.5
320 1 0.975145 0.725811 0.5
416 3 0.750607 0.967858 0.5
342 1 0.525248 0.823225 0.5
343 1 0.550166 0.774703 0.5
344 1 0.575192 0.823156 0.5
345 1 0.600121 0.774601 0.5
346 1 0.625173 0.822942 0.5
347 1 0.650122 0.774439 0.5
348 1 0.675256 0.822667 0.5
349 1 0.700171 0.77427 0.5
350 1 0.725288 0.822547 0.5
351 1 0.750202 0.774181 0.5
352 1 0.775286 0.822503 0.5
353 1 0.800211 0.774144 0.5
354 1 0.825265 0.822497 0.5
355 1 0.850205 0.774138 0.5
356 1 0.875237 0.822509 0.5
357 1 0.90019 0.774149 0.5
358 1 0.925207 0.82253 0.5
359 1 0.950172 0.774169 0.5
360 1 0.975179 0.822555 0.5
419 1 0.900276 0.967882 0.5
382 3 0.525329 0.920419 0.5
383 3 0.550303 0.87178 0.5
384 3 0.575427 0.920522 0.5
385 3 0.600253 0.871557 0.5
386 3 0.625766 0.919488 0.5
387 3 0.650412 0.871068 0.5
388 3 0.675675 0.919319 0.5
389 3 0.700426 0.870918 0.5
390 3 0.72556 0.919252 0.5
391 3 0.750393 0.870866 0.5
392 3 0.775454 0.919241 0.5
393 1 0.800346 0.870861 0.5
394 1 0.82537 0.919252 0.5
395 1 0.850296 0.870874 0.5
396 1 0.875298 0.919272 0.5
397 1 0.900249 0.870896 0.5
398 1 0.92524 0.919296 0.5
399 1 0.950207 0.870921 0.5
400 1 0.975194 0.91932 0.5
411 3 0.499883 0.968813 0.5
412 3 0.564335 1.00473 0.5
413 3 0.601726 0.968252 0.5
414 3 0.651163 0.968035 0.5
415 3 0.700828 0.967899 0.5
121 1 1.00002 0.290521 0.5
381 3 0.500287 0.871676 0.5
161 1 1.00004 0.38726 0.5
241 1 1.00009 0.580723 0.5
281 1 1.00012 0.677454 0.5
ITEM: TIMESTEP
182
ITEM: NUMBER OF ATOMS
420
ITEM: BOX BOUNDS pp ss pp
0.0000000000000000e+00 2.2653923264628304e+01
2.1918578738840608e-01 2.0126884254249358e+01
-2.8317404080785380e-01 2.8317404080785380e-01
ITEM: ATOMS id type xs ys zs
1 2 0 9.85689e-05 0.5
2 2 0.025 0.0484289 0.5
3 2 0.05 9.85689e-05 0.5
4 2 0.075 0.0484289 0.5
5 2 0.1 9.85689e-05 0.5
6 2 0.125 0.0484289 0.5
7 2 0.15 9.85689e-05 0.5
8 2 0.175 0.0484289 0.5
9 2 0.2 9.85689e-05 0.5
10 2 0.225 0.0484289 0.5
11 2 0.25 9.85689e-05 0.5
12 2 0.275 0.0484289 0.5
13 2 0.3 9.85689e-05 0.5
14 2 0.325 0.0484289 0.5
15 2 0.35 9.85689e-05 0.5
16 2 0.375 0.0484289 0.5
17 2 0.4 9.85689e-05 0.5
18 2 0.425 0.0484289 0.5
19 2 0.45 9.85689e-05 0.5
20 2 0.475 0.0484289 0.5
41 2 3.57546e-18 0.0965611 0.5
42 1 0.0250084 0.144704 0.5
43 2 0.05 0.0965611 0.5
44 1 0.0750103 0.144705 0.5
45 2 0.1 0.0965611 0.5
46 1 0.125012 0.144706 0.5
47 2 0.15 0.0965611 0.5
48 1 0.175013 0.144707 0.5
49 2 0.2 0.0965611 0.5
50 1 0.225013 0.144708 0.5
51 2 0.25 0.0965611 0.5
52 1 0.275012 0.14471 0.5
53 2 0.3 0.0965611 0.5
54 1 0.325011 0.144711 0.5
55 2 0.35 0.0965611 0.5
56 1 0.375009 0.144711 0.5
57 2 0.4 0.0965611 0.5
58 1 0.425006 0.144712 0.5
59 2 0.45 0.0965611 0.5
60 1 0.475004 0.144712 0.5
81 1 1.46736e-05 0.192846 0.5
82 1 0.0250252 0.240987 0.5
83 1 0.0500186 0.192847 0.5
84 1 0.0750302 0.24099 0.5
85 1 0.100022 0.192849 0.5
86 1 0.125034 0.240994 0.5
87 1 0.150024 0.192852 0.5
88 1 0.175036 0.240999 0.5
89 1 0.200025 0.192855 0.5
90 1 0.225036 0.241004 0.5
91 1 0.250024 0.192858 0.5
92 1 0.275035 0.241009 0.5
93 1 0.300022 0.19286 0.5
94 1 0.325031 0.241013 0.5
95 1 0.350019 0.192862 0.5
96 1 0.375026 0.241016 0.5
97 1 0.400015 0.192864 0.5
98 1 0.425021 0.241018 0.5
99 1 0.450011 0.192864 0.5
100 1 0.475014 0.241018 0.5
407 1 0.300013 0.963419 0.5
122 1 0.0250442 0.337265 0.5
123 1 0.0500376 0.289129 0.5
124 1 0.0750515 0.33727 0.5
125 1 0.100043 0.289134 0.5
126 1 0.125057 0.337279 0.5
127 1 0.150047 0.289141 0.5
128 1 0.17506 0.337289 0.5
129 1 0.200049 0.289148 0.5
130 1 0.225061 0.3373 0.5
131 1 0.250048 0.289156 0.5
132 1 0.27506 0.337311 0.5
133 1 0.300045 0.289163 0.5
134 1 0.325055 0.337321 0.5
135 1 0.35004 0.289169 0.5
136 1 0.375048 0.337328 0.5
137 1 0.400033 0.289173 0.5
138 1 0.425039 0.337332 0.5
139 1 0.450025 0.289174 0.5
140 1 0.475029 0.337332 0.5
410 3 0.449869 0.963712 0.5
162 1 0.0250671 0.433536 0.5
163 1 0.0500594 0.385404 0.5
164 1 0.0750757 0.433546 0.5
165 1 0.100067 0.385414 0.5
166 1 0.125082 0.43356 0.5
167 1 0.150072 0.385427 0.5
168 1 0.175087 0.433577 0.5
169 1 0.200075 0.385441 0.5
170 1 0.22509 0.433596 0.5
171 1 0.250075 0.385456 0.5
172 1 0.275089 0.433616 0.5
173 1 0.300072 0.38547 0.5
174 1 0.325085 0.433633 0.5
175 1 0.350066 0.385482 0.5
176 1 0.375077 0.433647 0.5
177 1 0.400056 0.38549 0.5
178 1 0.425065 0.433655 0.5
179 1 0.450045 0.385493 0.5
180 1 0.47505 0.433658 0.5
201 1 7.54199e-05 0.481665 0.5
202 1 0.0250944 0.529802 0.5
203 1 0.0500846 0.481675 0.5
204 1 0.0751017 0.529817 0.5
205 1 0.100092 0.48169 0.5
206 1 0.125108 0.529837 0.5
207 1 0.150098 0.481709 0.5
208 1 0.175114 0.529861 0.5
209 1 0.200103 0.481732 0.5
210 1 0.225118 0.529889 0.5
211 1 0.250105 0.481756 0.5
212 1 0.275121 0.529919 0.5
213 1 0.300104 0.481779 0.5
214 1 0.325121 0.529948 0.5
215 1 0.350099 0.481801 0.5
216 1 0.375114 0.529974 0.5
217 1 0.400089 0.481817 0.5
218 1 0.425102 0.529992 0.5
219 1 0.450074 0.481825 0.5
220 1 0.475083 0.53 0.5
409 1 0.399935 0.963564 0.5
242 1 0.0251243 0.626066 0.5
243 1 0.050112 0.577942 0.5
244 1 0.0751265 0.626086 0.5
245 1 0.100117 0.577962 0.5
246 1 0.125129 0.626111 0.5
247 1 0.150122 0.577987 0.5
248 1 0.175134 0.626141 0.5
249 1 0.200128 0.578017 0.5
250 1 0.22514 0.626175 0.5
251 1 0.250134 0.578051 0.5
252 1 0.275148 0.626215 0.5
253 1 0.300138 0.578087 0.5
254 1 0.325156 0.62626 0.5
255 1 0.350139 0.578124 0.5
256 1 0.375159 0.626306 0.5
257 1 0.400132 0.578155 0.5
258 1 0.425151 0.626345 0.5
259 1 0.450116 0.578175 0.5
260 1 0.475131 0.626367 0.5
408 1 0.34998 0.963477 0.5
282 1 0.0251526 0.722334 0.5
283 1 0.0501378 0.674209 0.5
284 1 0.0751451 0.722358 0.5
285 1 0.100136 0.674234 0.5
286 1 0.12514 0.722385 0.5
287 1 0.150137 0.674262 0.5
288 1 0.17514 0.722416 0.5
289 1 0.200142 0.674296 0.5
290 1 0.225145 0.722453 0.5
291 1 0.25015 0.674336 0.5
292 1 0.275155 0.722498 0.5
293 1 0.300162 0.674384 0.5
294 1 0.325172 0.722555 0.5
295 1 0.350174 0.67444 0.5
296 1 0.375192 0.722626 0.5
297 1 0.400181 0.674499 0.5
298 1 0.425207 0.722706 0.5
299 1 0.450174 0.674548 0.5
300 1 0.475199 0.722768 0.5
321 1 0.000172021 0.770461 0.5
322 1 0.0251725 0.818614 0.5
323 1 0.0501568 0.770484 0.5
324 1 0.0751523 0.818639 0.5
325 1 0.100145 0.77051 0.5
326 1 0.125137 0.818664 0.5
327 1 0.150137 0.770538 0.5
328 1 0.175127 0.818693 0.5
329 1 0.200136 0.770571 0.5
330 1 0.225123 0.818726 0.5
331 1 0.250141 0.77061 0.5
332 1 0.275127 0.818768 0.5
333 1 0.300154 0.770661 0.5
334 1 0.325142 0.818825 0.5
335 1 0.350177 0.77073 0.5
336 1 0.375171 0.818907 0.5
337 1 0.400208 0.770821 0.5
338 1 0.425216 0.819026 0.5
339 1 0.450237 0.770933 0.5
340 1 0.475269 0.819194 0.5
361 1 0.000192358 0.866749 0.5
362 1 0.0251763 0.914912 0.5
363 1 0.0501629 0.866772 0.5
364 1 0.0751444 0.914934 0.5
365 1 0.100139 0.866795 0.5
366 1 0.125118 0.914956 0.5
367 1 0.150121 0.86682 0.5
368 1 0.175097 0.914981 0.5
369 1 0.200108 0.866849 0.5
370 1 0.225079 0.91501 0.5
371 1 0.2501 0.866883 0.5
372 1 0.275064 0.915046 0.5
373 1 0.3001 0.866928 0.5
374 1 0.325053 0.915095 0.5
375 1 0.350111 0.866991 0.5
376 1 0.375049 0.915166 0.5
377 1 0.40014 0.867087 0.5
378 1 0.425059 0.91528 0.5
379 3 0.450198 0.867245 0.5
380 3 0.475109 0.915513 0.5
401 1 0.000191315 0.96326 0.5
402 1 0.0501517 0.963279 0.5
403 1 0.100119 0.963299 0.5
404 1 0.150091 0.963321 0.5
405 1 0.200066 0.963347 0.5
406 1 0.25004 0.963378 0.5
411 3 0.499881 0.964188 0.5
281 1 0.000140236 0.674189 0.5
241 1 0.000106106 0.577927 0.5
161 1 5.0401e-05 0.385398 0.5
121 1 3.07155e-05 0.289125 0.5
21 2 0.5 9.85689e-05 0.5
22 2 0.525 0.0484289 0.5
23 2 0.55 9.85689e-05 0.5
24 2 0.575 0.0484289 0.5
25 2 0.6 9.85689e-05 0.5
26 2 0.625 0.0484289 0.5
27 2 0.65 9.85689e-05 0.5
28 2 0.675 0.0484289 0.5
29 2 0.7 9.85689e-05 0.5
30 2 0.725 0.0484289 0.5
31 2 0.75 9.85689e-05 0.5
32 2 0.775 0.0484289 0.5
33 2 0.8 9.85689e-05 0.5
34 2 0.825 0.0484289 0.5
35 2 0.85 9.85689e-05 0.5
36 2 0.875 0.0484289 0.5
37 2 0.9 9.85689e-05 0.5
38 2 0.925 0.0484289 0.5
39 2 0.95 9.85689e-05 0.5
40 2 0.975 0.0484289 0.5
61 2 0.5 0.0965611 0.5
62 1 0.525002 0.144711 0.5
63 2 0.55 0.0965611 0.5
64 1 0.575 0.144711 0.5
65 2 0.6 0.0965611 0.5
66 1 0.624999 0.14471 0.5
67 2 0.65 0.0965611 0.5
68 1 0.674998 0.144709 0.5
69 2 0.7 0.0965611 0.5
70 1 0.724998 0.144708 0.5
71 2 0.75 0.0965611 0.5
72 1 0.774999 0.144707 0.5
73 2 0.8 0.0965611 0.5
74 1 0.825 0.144706 0.5
75 2 0.85 0.0965611 0.5
76 1 0.875002 0.144705 0.5
77 2 0.9 0.0965611 0.5
78 1 0.925004 0.144704 0.5
79 2 0.95 0.0965611 0.5
80 1 0.975006 0.144704 0.5
101 1 0.500007 0.192864 0.5
102 1 0.525008 0.241017 0.5
103 1 0.550003 0.192863 0.5
104 1 0.575003 0.241014 0.5
105 1 0.6 0.192861 0.5
106 1 0.624999 0.24101 0.5
107 1 0.649998 0.192859 0.5
108 1 0.674997 0.241006 0.5
109 1 0.699997 0.192856 0.5
110 1 0.724997 0.241001 0.5
111 1 0.749997 0.192853 0.5
112 1 0.774999 0.240996 0.5
113 1 0.799999 0.192851 0.5
114 1 0.825002 0.240992 0.5
115 1 0.850002 0.192848 0.5
116 1 0.875007 0.240989 0.5
117 1 0.900006 0.192847 0.5
118 1 0.925013 0.240987 0.5
119 1 0.95001 0.192846 0.5
120 1 0.975019 0.240986 0.5
141 1 0.500017 0.289173 0.5
142 1 0.525019 0.337329 0.5
143 1 0.550009 0.28917 0.5
144 1 0.57501 0.337324 0.5
145 1 0.600003 0.289165 0.5
146 1 0.625003 0.337315 0.5
147 1 0.649999 0.289159 0.5
148 1 0.674999 0.337305 0.5
149 1 0.699997 0.289152 0.5
150 1 0.724999 0.337294 0.5
151 1 0.749998 0.289144 0.5