LAMMPS (29 Oct 2020)
Processor partition = 3
# 2d NEB surface simulation, hop from surface to become adatom

dimension	2
boundary	p s p

atom_style	atomic
neighbor	0.3 bin
neigh_modify	delay 5
atom_modify	map array sort 0 0.0

variable	u uloop 20

# create geometry with flat surface

lattice		hex 0.9
Lattice spacing in x,y,z = 1.1326962 1.9618873 1.1326962
region		box block 0 20 0 10 -0.25 0.25

#create_box	3 box
#create_atoms	1 box
#mass		* 1.0
#write_data      initial.hop1

read_data        initial.hop1
Reading data file ...
  orthogonal box = (0.0000000 -0.0019618873 -0.28317404) to (22.653923 19.620835 0.28317404)
  2 by 1 by 1 MPI processor grid
  reading atoms ...
  420 atoms
  reading velocities ...
  420 velocities
  read_data CPU = 0.018 seconds

# LJ potentials

pair_style	lj/cut 2.5
pair_coeff	* * 1.0 1.0 2.5
pair_modify	shift yes

# initial minimization to relax surface

minimize	1.0e-6 1.0e-4 1000 10000
WARNING: Using 'neigh_modify every 1 delay 0 check yes' setting during minimization (../min.cpp:187)
Neighbor list info ...
  update every 1 steps, delay 0 steps, check yes
  max neighbors/atom: 2000, page size: 100000
  master list distance cutoff = 2.8
  ghost atom cutoff = 2.8
  binsize = 1.4, bins = 17 15 1
  1 neighbor lists, perpetual/occasional/extra = 1 0 0
  (1) pair lj/cut, perpetual
      attributes: half, newton on
      pair build: half/bin/atomonly/newton
      stencil: half/bin/2d/newton
      bin: standard
Per MPI rank memory allocation (min/avg/max) = 4.048 | 4.048 | 4.048 Mbytes
Step Temp E_pair E_mol TotEng Press Volume 
       0            0   -3.0336755            0   -3.0336755   -1.5977026    444.53335 
      18            0   -3.0535948            0   -3.0535948  -0.57268905    431.70531 
Loop time of 0.0023936 on 2 procs for 18 steps with 420 atoms

64.0% CPU use with 2 MPI tasks x no OpenMP threads

Minimization stats:
  Stopping criterion = energy tolerance
  Energy initial, next-to-last, final = 
     -3.03367547919511  -3.05359207891274  -3.05359479991383
  Force two-norm initial, final = 9.5360666 0.36608002
  Force max component initial, final = 1.4687744 0.043876235
  Final line search alpha, max atom move = 1.0000000 0.043876235
  Iterations, force evaluations = 18 36

MPI task timing breakdown:
Section |  min time  |  avg time  |  max time  |%varavg| %total
---------------------------------------------------------------
Pair    | 0.0012357  | 0.0014666  | 0.0016975  |   0.6 | 61.27
Neigh   | 6.1274e-05 | 7.5221e-05 | 8.9169e-05 |   0.0 |  3.14
Comm    | 0.00017834 | 0.00041652 | 0.0006547  |   0.0 | 17.40
Output  | 0          | 0          | 0          |   0.0 |  0.00
Modify  | 0          | 0          | 0          |   0.0 |  0.00
Other   |            | 0.0004352  |            |       | 18.18

Nlocal:        210.000 ave         210 max         210 min
Histogram: 2 0 0 0 0 0 0 0 0 0
Nghost:        95.0000 ave          95 max          95 min
Histogram: 2 0 0 0 0 0 0 0 0 0
Neighs:        1790.00 ave        1790 max        1790 min
Histogram: 2 0 0 0 0 0 0 0 0 0

Total # of neighbors = 3580
Ave neighs/atom = 8.5238095
Neighbor list builds = 2
Dangerous builds = 0
reset_timestep	0

# define groups

region	        1 block INF INF INF 1.25 INF INF
group		lower region 1
60 atoms in group lower
group		mobile subtract all lower
360 atoms in group mobile
set		group lower type 2
Setting atom values ...
  60 settings made for type

timestep	0.05

# group of NEB atoms - either block or single atom ID 412

region		surround block 10 18 17 20 0 0 units box
group		nebatoms region surround
21 atoms in group nebatoms
#group		nebatoms id 412
set		group nebatoms type 3
Setting atom values ...
  21 settings made for type
group		nonneb subtract all nebatoms
399 atoms in group nonneb

fix		1 lower setforce 0.0 0.0 0.0
fix		2 nebatoms neb 1.0 parallel ideal
fix		3 all enforce2d

thermo		100

#dump		1 nebatoms atom 10 dump.neb.$u
dump		3 all atom 10000 dump.combine.$u
dump		3 all atom 10000 dump.combine.4

# run NEB for 2000 steps or to force tolerance

min_style	quickmin

neb		0.0 0.1 1000 1000 100 final final.hop1
WARNING: Using 'neigh_modify every 1 delay 0 check yes' setting during minimization (../min.cpp:187)
Per MPI rank memory allocation (min/avg/max) = 3.931 | 3.931 | 3.931 Mbytes
Step Temp E_pair E_mol TotEng Press Volume 
       0            0   -2.8834382            0   -2.8834382   0.49441016    441.32384 
     100 2.8935392e-07   -3.0482348            0   -3.0482345  -0.56645078    445.54284 
     150 1.2621878e-07   -3.0481547            0   -3.0481546  -0.56791908    445.54284 
Loop time of 0.0237665 on 2 procs for 150 steps with 420 atoms

98.4% CPU use with 2 MPI tasks x no OpenMP threads

Minimization stats:
  Stopping criterion = force tolerance
  Energy initial, next-to-last, final = 
     -2.88343820018024  -3.04815565935918  -3.04815474425945
  Force two-norm initial, final = 1588.2017 0.064107965
  Force max component initial, final = 1115.1636 0.023997381
  Final line search alpha, max atom move = 0.0000000 0.0000000
  Iterations, force evaluations = 150 150

MPI task timing breakdown:
Section |  min time  |  avg time  |  max time  |%varavg| %total
---------------------------------------------------------------
Pair    | 0.0049853  | 0.0057597  | 0.0065341  |   1.0 | 24.23
Neigh   | 7.6056e-05 | 9.501e-05  | 0.00011396 |   0.0 |  0.40
Comm    | 0.00066233 | 0.0014296  | 0.0021968  |   2.0 |  6.02
Output  | 1.4067e-05 | 1.502e-05  | 1.5974e-05 |   0.0 |  0.06
Modify  | 0.010205   | 0.01022    | 0.010236   |   0.0 | 43.00
Other   |            | 0.006247   |            |       | 26.28

Nlocal:        210.000 ave         215 max         205 min
Histogram: 1 0 0 0 0 0 0 0 0 1
Nghost:        95.0000 ave         100 max          90 min
Histogram: 1 0 0 0 0 0 0 0 0 1
Neighs:        1790.00 ave        1835 max        1745 min
Histogram: 1 0 0 0 0 0 0 0 0 1

Total # of neighbors = 3580
Ave neighs/atom = 8.5238095
Neighbor list builds = 2
Dangerous builds = 0
WARNING: Using 'neigh_modify every 1 delay 0 check yes' setting during minimization (../min.cpp:187)
Per MPI rank memory allocation (min/avg/max) = 3.931 | 3.931 | 3.931 Mbytes
Step Temp E_pair E_mol TotEng Press Volume 
     150            0   -3.0481547            0   -3.0481547  -0.56600953    447.04606 
     182 1.1707411e-07   -3.0481549            0   -3.0481548  -0.56702277    447.04606 
Loop time of 0.00478888 on 2 procs for 32 steps with 420 atoms

100.0% CPU use with 2 MPI tasks x no OpenMP threads

Minimization stats:
  Stopping criterion = force tolerance
  Energy initial, next-to-last, final = 
     -3.04815474425945  -3.04815430605174  -3.04815490415098
  Force two-norm initial, final = 0.060607661 0.050394862
  Force max component initial, final = 0.015877799 0.008722523
  Final line search alpha, max atom move = 0.0000000 0.0000000
  Iterations, force evaluations = 32 32

MPI task timing breakdown:
Section |  min time  |  avg time  |  max time  |%varavg| %total
---------------------------------------------------------------
Pair    | 0.0011041  | 0.0011061  | 0.0011082  |   0.0 | 23.10
Neigh   | 0          | 0          | 0          |   0.0 |  0.00
Comm    | 0.00011063 | 0.00012243 | 0.00013423 |   0.0 |  2.56
Output  | 0          | 0          | 0          |   0.0 |  0.00
Modify  | 0.0015872  | 0.0015939  | 0.0016007  |   0.0 | 33.28
Other   |            | 0.001966   |            |       | 41.06

Nlocal:        210.000 ave         210 max         210 min
Histogram: 2 0 0 0 0 0 0 0 0 0
Nghost:        95.0000 ave          95 max          95 min
Histogram: 2 0 0 0 0 0 0 0 0 0
Neighs:        1790.00 ave        1790 max        1790 min
Histogram: 2 0 0 0 0 0 0 0 0 0

Total # of neighbors = 3580
Ave neighs/atom = 8.5238095
Neighbor list builds = 0
Dangerous builds = 0
Total wall time: 0:00:00
