LAMMPS (29 Oct 2020)
Processor partition = 5
# 2d NEB surface simulation, hop from surface to become adatom

dimension	2
boundary	p s p

atom_style	atomic
neighbor	0.3 bin
neigh_modify	delay 5
atom_modify	map array sort 0 0.0

variable	u uloop 20

# create geometry with flat surface

lattice		hex 0.9
Lattice spacing in x,y,z = 1.1326962 1.9618873 1.1326962
region		box block 0 20 0 10 -0.25 0.25

#create_box	3 box
#create_atoms	1 box
#mass		* 1.0
#write_data      initial.hop1

read_data        initial.hop1
Reading data file ...
  orthogonal box = (0.0000000 -0.0019618873 -0.28317404) to (22.653923 19.620835 0.28317404)
  2 by 1 by 1 MPI processor grid
  reading atoms ...
  420 atoms
  reading velocities ...
  420 velocities
  read_data CPU = 0.018 seconds

# LJ potentials

pair_style	lj/cut 2.5
pair_coeff	* * 1.0 1.0 2.5
pair_modify	shift yes

# initial minimization to relax surface

minimize	1.0e-6 1.0e-4 1000 10000
WARNING: Using 'neigh_modify every 1 delay 0 check yes' setting during minimization (../min.cpp:187)
Neighbor list info ...
  update every 1 steps, delay 0 steps, check yes
  max neighbors/atom: 2000, page size: 100000
  master list distance cutoff = 2.8
  ghost atom cutoff = 2.8
  binsize = 1.4, bins = 17 15 1
  1 neighbor lists, perpetual/occasional/extra = 1 0 0
  (1) pair lj/cut, perpetual
      attributes: half, newton on
      pair build: half/bin/atomonly/newton
      stencil: half/bin/2d/newton
      bin: standard
Per MPI rank memory allocation (min/avg/max) = 4.048 | 4.048 | 4.048 Mbytes
Step Temp E_pair E_mol TotEng Press Volume 
       0            0   -3.0336755            0   -3.0336755   -1.5977026    444.53335 
      18            0   -3.0535948            0   -3.0535948  -0.57268905    431.70531 
Loop time of 0.00323296 on 2 procs for 18 steps with 420 atoms

93.8% CPU use with 2 MPI tasks x no OpenMP threads

Minimization stats:
  Stopping criterion = energy tolerance
  Energy initial, next-to-last, final = 
     -3.03367547919511  -3.05359207891274  -3.05359479991383
  Force two-norm initial, final = 9.5360666 0.36608002
  Force max component initial, final = 1.4687744 0.043876235
  Final line search alpha, max atom move = 1.0000000 0.043876235
  Iterations, force evaluations = 18 36

MPI task timing breakdown:
Section |  min time  |  avg time  |  max time  |%varavg| %total
---------------------------------------------------------------
Pair    | 0.0012584  | 0.0018446  | 0.0024309  |   1.4 | 57.06
Neigh   | 7.5102e-05 | 0.0001061  | 0.00013709 |   0.0 |  3.28
Comm    | 0.00021601 | 0.00083256 | 0.0014491  |   0.0 | 25.75
Output  | 0          | 0          | 0          |   0.0 |  0.00
Modify  | 0          | 0          | 0          |   0.0 |  0.00
Other   |            | 0.0004497  |            |       | 13.91

Nlocal:        210.000 ave         210 max         210 min
Histogram: 2 0 0 0 0 0 0 0 0 0
Nghost:        95.0000 ave          95 max          95 min
Histogram: 2 0 0 0 0 0 0 0 0 0
Neighs:        1790.00 ave        1790 max        1790 min
Histogram: 2 0 0 0 0 0 0 0 0 0

Total # of neighbors = 3580
Ave neighs/atom = 8.5238095
Neighbor list builds = 2
Dangerous builds = 0
reset_timestep	0

# define groups

region	        1 block INF INF INF 1.25 INF INF
group		lower region 1
60 atoms in group lower
group		mobile subtract all lower
360 atoms in group mobile
set		group lower type 2
Setting atom values ...
  60 settings made for type

timestep	0.05

# group of NEB atoms - either block or single atom ID 412

region		surround block 10 18 17 20 0 0 units box
group		nebatoms region surround
21 atoms in group nebatoms
#group		nebatoms id 412
set		group nebatoms type 3
Setting atom values ...
  21 settings made for type
group		nonneb subtract all nebatoms
399 atoms in group nonneb

fix		1 lower setforce 0.0 0.0 0.0
fix		2 nebatoms neb 1.0 parallel ideal
fix		3 all enforce2d

thermo		100

#dump		1 nebatoms atom 10 dump.neb.$u
dump		3 all atom 10000 dump.combine.$u
dump		3 all atom 10000 dump.combine.6

# run NEB for 2000 steps or to force tolerance

min_style	quickmin

neb		0.0 0.1 1000 1000 100 final final.hop1
WARNING: Using 'neigh_modify every 1 delay 0 check yes' setting during minimization (../min.cpp:187)
Per MPI rank memory allocation (min/avg/max) = 3.931 | 3.931 | 3.931 Mbytes
Step Temp E_pair E_mol TotEng Press Volume 
       0            0   -1.8121775            0   -1.8121775     6.733314      445.864 
     100 2.0299459e-07   -3.0466893            0   -3.0466891  -0.53977292    452.93024 
     150 6.4281766e-08   -3.0466803            0   -3.0466803  -0.54015966    452.93024 
Loop time of 0.0237665 on 2 procs for 150 steps with 420 atoms

98.7% CPU use with 2 MPI tasks x no OpenMP threads

Minimization stats:
  Stopping criterion = force tolerance
  Energy initial, next-to-last, final = 
     -1.81217747877221  -3.04668043922934  -3.04668031976112
  Force two-norm initial, final = 13860.120 0.046890728
  Force max component initial, final = 7952.6147 0.014665165
  Final line search alpha, max atom move = 0.0000000 0.0000000
  Iterations, force evaluations = 150 150

MPI task timing breakdown:
Section |  min time  |  avg time  |  max time  |%varavg| %total
---------------------------------------------------------------
Pair    | 0.0050178  | 0.006954   | 0.0088902  |   2.3 | 29.26
Neigh   | 8.1062e-05 | 0.00011909 | 0.00015712 |   0.0 |  0.50
Comm    | 0.00083733 | 0.0028006  | 0.0047638  |   3.7 | 11.78
Output  | 1.7881e-05 | 1.9431e-05 | 2.0981e-05 |   0.0 |  0.08
Modify  | 0.0075126  | 0.0075352  | 0.0075579  |   0.0 | 31.71
Other   |            | 0.006338   |            |       | 26.67

Nlocal:        210.000 ave         214 max         206 min
Histogram: 1 0 0 0 0 0 0 0 0 1
Nghost:        95.0000 ave          99 max          91 min
Histogram: 1 0 0 0 0 0 0 0 0 1
Neighs:        1788.00 ave        1820 max        1756 min
Histogram: 1 0 0 0 0 0 0 0 0 1

Total # of neighbors = 3576
Ave neighs/atom = 8.5142857
Neighbor list builds = 2
Dangerous builds = 0
WARNING: Using 'neigh_modify every 1 delay 0 check yes' setting during minimization (../min.cpp:187)
Per MPI rank memory allocation (min/avg/max) = 3.931 | 3.931 | 3.931 Mbytes
Step Temp E_pair E_mol TotEng Press Volume 
     150            0   -3.0466803            0   -3.0466803  -0.53830949    454.48701 
     182 1.1241943e-07   -3.0466849            0   -3.0466848  -0.53856703    454.48701 
Loop time of 0.00478792 on 2 procs for 32 steps with 420 atoms

100.0% CPU use with 2 MPI tasks x no OpenMP threads

Minimization stats:
  Stopping criterion = force tolerance
  Energy initial, next-to-last, final = 
     -3.04668031976112  -3.04668457748896  -3.04668486854581
  Force two-norm initial, final = 0.042948853 0.065603691
  Force max component initial, final = 0.0059521419 0.024036455
  Final line search alpha, max atom move = 0.0000000 0.0000000
  Iterations, force evaluations = 32 32

MPI task timing breakdown:
Section |  min time  |  avg time  |  max time  |%varavg| %total
---------------------------------------------------------------
Pair    | 0.0011098  | 0.0014069  | 0.001704   |   0.8 | 29.38
Neigh   | 0          | 0          | 0          |   0.0 |  0.00
Comm    | 0.00017691 | 0.00046742 | 0.00075793 |   0.0 |  9.76
Output  | 0          | 0          | 0          |   0.0 |  0.00
Modify  | 0.00094438 | 0.00094628 | 0.00094819 |   0.0 | 19.76
Other   |            | 0.001967   |            |       | 41.09

Nlocal:        210.000 ave         211 max         209 min
Histogram: 1 0 0 0 0 0 0 0 0 1
Nghost:        95.0000 ave          96 max          94 min
Histogram: 1 0 0 0 0 0 0 0 0 1
Neighs:        1787.50 ave        1790 max        1785 min
Histogram: 1 0 0 0 0 0 0 0 0 1

Total # of neighbors = 3575
Ave neighs/atom = 8.5119048
Neighbor list builds = 0
Dangerous builds = 0
Total wall time: 0:00:00
