LAMMPS (29 Oct 2020)
Processor partition = 7
Lattice spacing in x,y,z = 1.1326962 1.9618873 1.1326962
Reading data file ...
  orthogonal box = (0.0000000 -0.0019618873 -0.28317404) to (22.653923 19.620835 0.28317404)
  2 by 1 by 1 MPI processor grid
  reading atoms ...
  420 atoms
  reading velocities ...
  420 velocities
  read_data CPU = 0.018 seconds
WARNING: Using 'neigh_modify every 1 delay 0 check yes' setting during minimization (../min.cpp:187)
Neighbor list info ...
  update every 1 steps, delay 0 steps, check yes
  max neighbors/atom: 2000, page size: 100000
  master list distance cutoff = 2.8
  ghost atom cutoff = 2.8
  binsize = 1.4, bins = 17 15 1
  1 neighbor lists, perpetual/occasional/extra = 1 0 0
  (1) pair lj/cut, perpetual
      attributes: half, newton on
      pair build: half/bin/atomonly/newton
      stencil: half/bin/2d/newton
      bin: standard
Setting up cg style minimization ...
  Unit style    : lj
  Current step  : 0
Per MPI rank memory allocation (min/avg/max) = 4.048 | 4.048 | 4.048 Mbytes
Step Temp E_pair E_mol TotEng Press Volume 
       0            0   -3.0336755            0   -3.0336755   -1.5977026    444.53335 
      18            0   -3.0535948            0   -3.0535948  -0.57268905    431.70531 
Loop time of 0.00176406 on 2 procs for 18 steps with 420 atoms

58.9% CPU use with 2 MPI tasks x no OpenMP threads

Minimization stats:
  Stopping criterion = energy tolerance
  Energy initial, next-to-last, final = 
     -3.03367547919511  -3.05359207891274  -3.05359479991383
  Force two-norm initial, final = 9.5360666 0.36608002
  Force max component initial, final = 1.4687744 0.043876235
  Final line search alpha, max atom move = 1.0000000 0.043876235
  Iterations, force evaluations = 18 36

MPI task timing breakdown:
Section |  min time  |  avg time  |  max time  |%varavg| %total
---------------------------------------------------------------
Pair    | 0.0012228  | 0.0012276  | 0.0012324  |   0.0 | 69.59
Neigh   | 5.9843e-05 | 6.2346e-05 | 6.485e-05  |   0.0 |  3.53
Comm    | 0.00014853 | 0.0001539  | 0.00015926 |   0.0 |  8.72
Output  | 0          | 0          | 0          |   0.0 |  0.00
Modify  | 0          | 0          | 0          |   0.0 |  0.00
Other   |            | 0.0003202  |            |       | 18.15

Nlocal:        210.000 ave         210 max         210 min
Histogram: 2 0 0 0 0 0 0 0 0 0
Nghost:        95.0000 ave          95 max          95 min
Histogram: 2 0 0 0 0 0 0 0 0 0
Neighs:        1790.00 ave        1790 max        1790 min
Histogram: 2 0 0 0 0 0 0 0 0 0

Total # of neighbors = 3580
Ave neighs/atom = 8.5238095
Neighbor list builds = 2
Dangerous builds = 0
60 atoms in group lower
360 atoms in group mobile
Setting atom values ...
  60 settings made for type
21 atoms in group nebatoms
Setting atom values ...
  21 settings made for type
399 atoms in group nonneb
WARNING: Using 'neigh_modify every 1 delay 0 check yes' setting during minimization (../min.cpp:187)
Setting up quickmin style minimization ...
  Unit style    : lj
  Current step  : 0
Per MPI rank memory allocation (min/avg/max) = 3.931 | 3.931 | 3.931 Mbytes
Step Temp E_pair E_mol TotEng Press Volume 
       0            0   -2.6059033            0   -2.6059033    2.1014828    450.40415 
     100 1.0148794e-07   -3.0464954            0   -3.0464953  -0.53156919      457.252 
     150 4.4384713e-08   -3.0464991            0    -3.046499  -0.53152028      457.252 
Loop time of 0.0237665 on 2 procs for 150 steps with 420 atoms

98.7% CPU use with 2 MPI tasks x no OpenMP threads

Minimization stats:
  Stopping criterion = force tolerance
  Energy initial, next-to-last, final = 
        -2.60590330278  -3.04649900539252  -3.04649905582841
  Force two-norm initial, final = 4517.1888 0.038017685
  Force max component initial, final = 3252.1061 0.022611347
  Final line search alpha, max atom move = 0.0000000 0.0000000
  Iterations, force evaluations = 150 150

MPI task timing breakdown:
Section |  min time  |  avg time  |  max time  |%varavg| %total
---------------------------------------------------------------
Pair    | 0.0050235  | 0.0050858  | 0.0051482  |   0.1 | 21.40
Neigh   | 8.893e-05  | 9.2387e-05 | 9.5844e-05 |   0.0 |  0.39
Comm    | 0.0005703  | 0.0006212  | 0.0006721  |   0.0 |  2.61
Output  | 1.3113e-05 | 1.359e-05  | 1.4067e-05 |   0.0 |  0.06
Modify  | 0.011585   | 0.0116     | 0.011614   |   0.0 | 48.81
Other   |            | 0.006354   |            |       | 26.73

Nlocal:        210.000 ave         214 max         206 min
Histogram: 1 0 0 0 0 0 0 0 0 1
Nghost:        95.0000 ave          99 max          91 min
Histogram: 1 0 0 0 0 0 0 0 0 1
Neighs:        1788.50 ave        1816 max        1761 min
Histogram: 1 0 0 0 0 0 0 0 0 1

Total # of neighbors = 3577
Ave neighs/atom = 8.5166667
Neighbor list builds = 2
Dangerous builds = 0
WARNING: Using 'neigh_modify every 1 delay 0 check yes' setting during minimization (../min.cpp:187)
Setting up quickmin style minimization ...
  Unit style    : lj
  Current step  : 150
Per MPI rank memory allocation (min/avg/max) = 3.931 | 3.931 | 3.931 Mbytes
Step Temp E_pair E_mol TotEng Press Volume 
     150            0   -3.0464991            0   -3.0464991  -0.52976018    458.77123 
     182 4.7732846e-07   -3.0464933            0   -3.0464928  -0.52963987    458.77123 
Loop time of 0.00478935 on 2 procs for 32 steps with 420 atoms

100.0% CPU use with 2 MPI tasks x no OpenMP threads

Minimization stats:
  Stopping criterion = force tolerance
  Energy initial, next-to-last, final = 
     -3.04649905582841  -3.04649347841516  -3.04649331975732
  Force two-norm initial, final = 0.12932435 0.099845085
  Force max component initial, final = 0.11865625 0.094365758
  Final line search alpha, max atom move = 0.0000000 0.0000000
  Iterations, force evaluations = 32 32

MPI task timing breakdown:
Section |  min time  |  avg time  |  max time  |%varavg| %total
---------------------------------------------------------------
Pair    | 0.0010929  | 0.0011063  | 0.0011196  |   0.0 | 23.10
Neigh   | 0          | 0          | 0          |   0.0 |  0.00
Comm    | 0.00012255 | 0.00013149 | 0.00014043 |   0.0 |  2.75
Output  | 0          | 0          | 0          |   0.0 |  0.00
Modify  | 0.0015674  | 0.0015708  | 0.0015743  |   0.0 | 32.80
Other   |            | 0.001981   |            |       | 41.36

Nlocal:        210.000 ave         213 max         207 min
Histogram: 1 0 0 0 0 0 0 0 0 1
Nghost:        95.0000 ave          98 max          92 min
Histogram: 1 0 0 0 0 0 0 0 0 1
Neighs:        1788.00 ave        1809 max        1767 min
Histogram: 1 0 0 0 0 0 0 0 0 1

Total # of neighbors = 3576
Ave neighs/atom = 8.5142857
Neighbor list builds = 0
Dangerous builds = 0
Total wall time: 0:00:00
