LAMMPS (29 Oct 2020)
Processor partition = 6
Lattice spacing in x,y,z = 1.1326962 1.9618873 1.1326962
Reading data file ...
  orthogonal box = (0.0000000 -0.0019618873 -0.28317404) to (22.653923 19.620835 0.28317404)
  2 by 1 by 1 MPI processor grid
  reading atoms ...
  420 atoms
  reading velocities ...
  420 velocities
  read_data CPU = 0.017 seconds
WARNING: Using 'neigh_modify every 1 delay 0 check yes' setting during minimization (../min.cpp:187)
Neighbor list info ...
  update every 1 steps, delay 0 steps, check yes
  max neighbors/atom: 2000, page size: 100000
  master list distance cutoff = 2.8
  ghost atom cutoff = 2.8
  binsize = 1.4, bins = 17 15 1
  1 neighbor lists, perpetual/occasional/extra = 1 0 0
  (1) pair lj/cut, perpetual
      attributes: half, newton on
      pair build: half/bin/atomonly/newton
      stencil: half/bin/2d/newton
      bin: standard
Setting up cg style minimization ...
  Unit style    : lj
  Current step  : 0
Per MPI rank memory allocation (min/avg/max) = 4.048 | 4.048 | 4.048 Mbytes
Step Temp E_pair E_mol TotEng Press Volume 
       0            0   -3.0336755            0   -3.0336755   -1.5977026    444.53335 
      18            0   -3.0535948            0   -3.0535948  -0.57268905    431.70531 
Loop time of 0.00182295 on 2 procs for 18 steps with 420 atoms

99.9% CPU use with 2 MPI tasks x no OpenMP threads

Minimization stats:
  Stopping criterion = energy tolerance
  Energy initial, next-to-last, final = 
     -3.03367547919511  -3.05359207891274  -3.05359479991383
  Force two-norm initial, final = 9.5360666 0.36608002
  Force max component initial, final = 1.4687744 0.043876235
  Final line search alpha, max atom move = 1.0000000 0.043876235
  Iterations, force evaluations = 18 36

MPI task timing breakdown:
Section |  min time  |  avg time  |  max time  |%varavg| %total
---------------------------------------------------------------
Pair    | 0.0012331  | 0.0012376  | 0.0012422  |   0.0 | 67.89
Neigh   | 6.485e-05  | 6.6876e-05 | 6.8903e-05 |   0.0 |  3.67
Comm    | 0.00017977 | 0.00018001 | 0.00018024 |   0.0 |  9.87
Output  | 0          | 0          | 0          |   0.0 |  0.00
Modify  | 0          | 0          | 0          |   0.0 |  0.00
Other   |            | 0.0003384  |            |       | 18.57

Nlocal:        210.000 ave         210 max         210 min
Histogram: 2 0 0 0 0 0 0 0 0 0
Nghost:        95.0000 ave          95 max          95 min
Histogram: 2 0 0 0 0 0 0 0 0 0
Neighs:        1790.00 ave        1790 max        1790 min
Histogram: 2 0 0 0 0 0 0 0 0 0

Total # of neighbors = 3580
Ave neighs/atom = 8.5238095
Neighbor list builds = 2
Dangerous builds = 0
60 atoms in group lower
360 atoms in group mobile
Setting atom values ...
  60 settings made for type
21 atoms in group nebatoms
Setting atom values ...
  21 settings made for type
399 atoms in group nonneb
WARNING: Using 'neigh_modify every 1 delay 0 check yes' setting during minimization (../min.cpp:187)
Setting up quickmin style minimization ...
  Unit style    : lj
  Current step  : 0
Per MPI rank memory allocation (min/avg/max) = 3.931 | 3.931 | 3.931 Mbytes
Step Temp E_pair E_mol TotEng Press Volume 
       0            0   -1.9587282            0   -1.9587282    5.8556614    448.13407 
     100 2.2650651e-07   -3.0465158            0   -3.0465155  -0.53442677    455.35215 
     150 8.1067192e-08   -3.0465101            0     -3.04651  -0.53452318    455.35215 
Loop time of 0.0237591 on 2 procs for 150 steps with 420 atoms

94.5% CPU use with 2 MPI tasks x no OpenMP threads

Minimization stats:
  Stopping criterion = force tolerance
  Energy initial, next-to-last, final = 
      -1.9587282494166   -3.0465101902115  -3.04651011519183
  Force two-norm initial, final = 12063.400 0.051493926
  Force max component initial, final = 7725.5758 0.034511367
  Final line search alpha, max atom move = 0.0000000 0.0000000
  Iterations, force evaluations = 150 150

MPI task timing breakdown:
Section |  min time  |  avg time  |  max time  |%varavg| %total
---------------------------------------------------------------
Pair    | 0.0049691  | 0.0050859  | 0.0052028  |   0.2 | 21.41
Neigh   | 8.6784e-05 | 9.3341e-05 | 9.9897e-05 |   0.0 |  0.39
Comm    | 0.00070739 | 0.00080216 | 0.00089693 |   0.0 |  3.38
Output  | 1.3113e-05 | 1.4067e-05 | 1.502e-05  |   0.0 |  0.06
Modify  | 0.011431   | 0.01145    | 0.011469   |   0.0 | 48.19
Other   |            | 0.006314   |            |       | 26.57

Nlocal:        210.000 ave         216 max         204 min
Histogram: 1 0 0 0 0 0 0 0 0 1
Nghost:        95.0000 ave         101 max          89 min
Histogram: 1 0 0 0 0 0 0 0 0 1
Neighs:        1787.50 ave        1828 max        1747 min
Histogram: 1 0 0 0 0 0 0 0 0 1

Total # of neighbors = 3575
Ave neighs/atom = 8.5119048
Neighbor list builds = 2
Dangerous builds = 0
WARNING: Using 'neigh_modify every 1 delay 0 check yes' setting during minimization (../min.cpp:187)
Setting up quickmin style minimization ...
  Unit style    : lj
  Current step  : 150
Per MPI rank memory allocation (min/avg/max) = 3.931 | 3.931 | 3.931 Mbytes
Step Temp E_pair E_mol TotEng Press Volume 
     150            0   -3.0465101            0   -3.0465101  -0.53256423    457.02715 
     182 5.7553536e-08   -3.0465108            0   -3.0465108  -0.53262146    457.02715 
Loop time of 0.00478888 on 2 procs for 32 steps with 420 atoms

91.8% CPU use with 2 MPI tasks x no OpenMP threads

Minimization stats:
  Stopping criterion = force tolerance
  Energy initial, next-to-last, final = 
     -3.04651011519183  -3.04651074479234  -3.04651082182368
  Force two-norm initial, final = 0.038303386 0.041868678
  Force max component initial, final = 0.015239014 0.022800039
  Final line search alpha, max atom move = 0.0000000 0.0000000
  Iterations, force evaluations = 32 32

MPI task timing breakdown:
Section |  min time  |  avg time  |  max time  |%varavg| %total
---------------------------------------------------------------
Pair    | 0.0011036  | 0.0011069  | 0.0011101  |   0.0 | 23.11
Neigh   | 0          | 0          | 0          |   0.0 |  0.00
Comm    | 0.00013685 | 0.00014138 | 0.00014591 |   0.0 |  2.95
Output  | 0          | 0          | 0          |   0.0 |  0.00
Modify  | 0.0015604  | 0.0015676  | 0.0015748  |   0.0 | 32.73
Other   |            | 0.001973   |            |       | 41.20

Nlocal:        210.000 ave         211 max         209 min
Histogram: 1 0 0 0 0 0 0 0 0 1
Nghost:        95.0000 ave          96 max          94 min
Histogram: 1 0 0 0 0 0 0 0 0 1
Neighs:        1787.50 ave        1790 max        1785 min
Histogram: 1 0 0 0 0 0 0 0 0 1

Total # of neighbors = 3575
Ave neighs/atom = 8.5119048
Neighbor list builds = 0
Dangerous builds = 0
Total wall time: 0:00:00
