LAMMPS (29 Oct 2020)
Processor partition = 2
Lattice spacing in x,y,z = 1.1326962 1.9618873 1.1326962
Reading data file ...
  orthogonal box = (0.0000000 -0.0019618873 -0.28317404) to (22.653923 19.620835 0.28317404)
  2 by 1 by 1 MPI processor grid
  reading atoms ...
  420 atoms
  reading velocities ...
  420 velocities
  read_data CPU = 0.018 seconds
WARNING: Using 'neigh_modify every 1 delay 0 check yes' setting during minimization (../min.cpp:187)
Neighbor list info ...
  update every 1 steps, delay 0 steps, check yes
  max neighbors/atom: 2000, page size: 100000
  master list distance cutoff = 2.8
  ghost atom cutoff = 2.8
  binsize = 1.4, bins = 17 15 1
  1 neighbor lists, perpetual/occasional/extra = 1 0 0
  (1) pair lj/cut, perpetual
      attributes: half, newton on
      pair build: half/bin/atomonly/newton
      stencil: half/bin/2d/newton
      bin: standard
Setting up cg style minimization ...
  Unit style    : lj
  Current step  : 0
Per MPI rank memory allocation (min/avg/max) = 4.048 | 4.048 | 4.048 Mbytes
Step Temp E_pair E_mol TotEng Press Volume 
       0            0   -3.0336755            0   -3.0336755   -1.5977026    444.53335 
      18            0   -3.0535948            0   -3.0535948  -0.57268905    431.70531 
Loop time of 0.00351655 on 2 procs for 18 steps with 420 atoms

86.2% CPU use with 2 MPI tasks x no OpenMP threads

Minimization stats:
  Stopping criterion = energy tolerance
  Energy initial, next-to-last, final = 
     -3.03367547919511  -3.05359207891274  -3.05359479991383
  Force two-norm initial, final = 9.5360666 0.36608002
  Force max component initial, final = 1.4687744 0.043876235
  Final line search alpha, max atom move = 1.0000000 0.043876235
  Iterations, force evaluations = 18 36

MPI task timing breakdown:
Section |  min time  |  avg time  |  max time  |%varavg| %total
---------------------------------------------------------------
Pair    | 0.0022495  | 0.0024114  | 0.0025733  |   0.3 | 68.57
Neigh   | 0.00010991 | 0.00012147 | 0.00013304 |   0.0 |  3.45
Comm    | 0.00024939 | 0.00042045 | 0.00059152 |   0.0 | 11.96
Output  | 0          | 0          | 0          |   0.0 |  0.00
Modify  | 0          | 0          | 0          |   0.0 |  0.00
Other   |            | 0.0005633  |            |       | 16.02

Nlocal:        210.000 ave         210 max         210 min
Histogram: 2 0 0 0 0 0 0 0 0 0
Nghost:        95.0000 ave          95 max          95 min
Histogram: 2 0 0 0 0 0 0 0 0 0
Neighs:        1790.00 ave        1790 max        1790 min
Histogram: 2 0 0 0 0 0 0 0 0 0

Total # of neighbors = 3580
Ave neighs/atom = 8.5238095
Neighbor list builds = 2
Dangerous builds = 0
60 atoms in group lower
360 atoms in group mobile
Setting atom values ...
  60 settings made for type
21 atoms in group nebatoms
Setting atom values ...
  21 settings made for type
399 atoms in group nonneb
WARNING: Using 'neigh_modify every 1 delay 0 check yes' setting during minimization (../min.cpp:187)
Setting up quickmin style minimization ...
  Unit style    : lj
  Current step  : 0
Per MPI rank memory allocation (min/avg/max) = 3.931 | 3.931 | 3.931 Mbytes
Step Temp E_pair E_mol TotEng Press Volume 
       0            0   -3.0224282            0   -3.0224282  -0.36230467    439.05376 
     100 3.9740316e-07   -3.0501766            0   -3.0501762  -0.58610874    440.36532 
     150  2.01809e-07   -3.0500736            0   -3.0500734  -0.58894844    440.36532 
Loop time of 0.0237575 on 2 procs for 150 steps with 420 atoms

98.5% CPU use with 2 MPI tasks x no OpenMP threads

Minimization stats:
  Stopping criterion = force tolerance
  Energy initial, next-to-last, final = 
     -3.02242816364606  -3.05007462059925  -3.05007357204776
  Force two-norm initial, final = 259.54131 0.081384529
  Force max component initial, final = 203.17248 0.019721658
  Final line search alpha, max atom move = 0.0000000 0.0000000
  Iterations, force evaluations = 150 150

MPI task timing breakdown:
Section |  min time  |  avg time  |  max time  |%varavg| %total
---------------------------------------------------------------
Pair    | 0.0079632  | 0.0087422  | 0.0095212  |   0.8 | 36.80
Neigh   | 7.7009e-05 | 8.9049e-05 | 0.00010109 |   0.0 |  0.37
Comm    | 0.00090194 | 0.0016679  | 0.0024338  |   1.9 |  7.02
Output  | 1.8835e-05 | 1.9908e-05 | 2.0981e-05 |   0.0 |  0.08
Modify  | 0.0070255  | 0.0070361  | 0.0070467  |   0.0 | 29.62
Other   |            | 0.006202   |            |       | 26.11

Nlocal:        210.000 ave         210 max         210 min
Histogram: 2 0 0 0 0 0 0 0 0 0
Nghost:        95.0000 ave          95 max          95 min
Histogram: 2 0 0 0 0 0 0 0 0 0
Neighs:        1790.00 ave        1793 max        1787 min
Histogram: 1 0 0 0 0 0 0 0 0 1

Total # of neighbors = 3580
Ave neighs/atom = 8.5238095
Neighbor list builds = 1
Dangerous builds = 0
WARNING: Using 'neigh_modify every 1 delay 0 check yes' setting during minimization (../min.cpp:187)
Setting up quickmin style minimization ...
  Unit style    : lj
  Current step  : 150
Per MPI rank memory allocation (min/avg/max) = 3.931 | 3.931 | 3.931 Mbytes
Step Temp E_pair E_mol TotEng Press Volume 
     150            0   -3.0500736            0   -3.0500736  -0.58581614    442.72006 
     182 2.0799291e-07   -3.0500766            0   -3.0500764  -0.58745217    442.72006 
Loop time of 0.00479102 on 2 procs for 32 steps with 420 atoms

100.0% CPU use with 2 MPI tasks x no OpenMP threads

Minimization stats:
  Stopping criterion = force tolerance
  Energy initial, next-to-last, final = 
     -3.05007357204776  -3.05007573339324  -3.05007661452352
  Force two-norm initial, final = 0.080111628 0.067034468
  Force max component initial, final = 0.013726928 0.0080280858
  Final line search alpha, max atom move = 0.0000000 0.0000000
  Iterations, force evaluations = 32 32

MPI task timing breakdown:
Section |  min time  |  avg time  |  max time  |%varavg| %total
---------------------------------------------------------------
Pair    | 0.0016031  | 0.0017228  | 0.0018425  |   0.3 | 35.96
Neigh   | 0          | 0          | 0          |   0.0 |  0.00
Comm    | 0.00017262 | 0.00028729 | 0.00040197 |   0.0 |  6.00
Output  | 0          | 0          | 0          |   0.0 |  0.00
Modify  | 0.00082922 | 0.00083113 | 0.00083303 |   0.0 | 17.35
Other   |            | 0.00195    |            |       | 40.70

Nlocal:        210.000 ave         210 max         210 min
Histogram: 2 0 0 0 0 0 0 0 0 0
Nghost:        95.0000 ave          95 max          95 min
Histogram: 2 0 0 0 0 0 0 0 0 0
Neighs:        1790.00 ave        1790 max        1790 min
Histogram: 2 0 0 0 0 0 0 0 0 0

Total # of neighbors = 3580
Ave neighs/atom = 8.5238095
Neighbor list builds = 0
Dangerous builds = 0
Total wall time: 0:00:00
