LAMMPS (29 Oct 2020)
Processor partition = 9
Lattice spacing in x,y,z = 1.1326962 1.9618873 1.1326962
Reading data file ...
  orthogonal box = (0.0000000 -0.0019618873 -0.28317404) to (22.653923 19.620835 0.28317404)
  2 by 1 by 1 MPI processor grid
  reading atoms ...
  420 atoms
  reading velocities ...
  420 velocities
  read_data CPU = 0.017 seconds
WARNING: Using 'neigh_modify every 1 delay 0 check yes' setting during minimization (../min.cpp:187)
Neighbor list info ...
  update every 1 steps, delay 0 steps, check yes
  max neighbors/atom: 2000, page size: 100000
  master list distance cutoff = 2.8
  ghost atom cutoff = 2.8
  binsize = 1.4, bins = 17 15 1
  1 neighbor lists, perpetual/occasional/extra = 1 0 0
  (1) pair lj/cut, perpetual
      attributes: half, newton on
      pair build: half/bin/atomonly/newton
      stencil: half/bin/2d/newton
      bin: standard
Setting up cg style minimization ...
  Unit style    : lj
  Current step  : 0
Per MPI rank memory allocation (min/avg/max) = 4.048 | 4.048 | 4.048 Mbytes
Step Temp E_pair E_mol TotEng Press Volume 
       0            0   -3.0336755            0   -3.0336755   -1.5977026    444.53335 
      18            0   -3.0535948            0   -3.0535948  -0.57268905    431.70531 
Loop time of 0.00183487 on 2 procs for 18 steps with 420 atoms

99.6% CPU use with 2 MPI tasks x no OpenMP threads

Minimization stats:
  Stopping criterion = energy tolerance
  Energy initial, next-to-last, final = 
     -3.03367547919511  -3.05359207891274  -3.05359479991383
  Force two-norm initial, final = 9.5360666 0.36608002
  Force max component initial, final = 1.4687744 0.043876235
  Final line search alpha, max atom move = 1.0000000 0.043876235
  Iterations, force evaluations = 18 36

MPI task timing breakdown:
Section |  min time  |  avg time  |  max time  |%varavg| %total
---------------------------------------------------------------
Pair    | 0.0012324  | 0.0012414  | 0.0012505  |   0.0 | 67.66
Neigh   | 6.032e-05  | 6.2823e-05 | 6.5327e-05 |   0.0 |  3.42
Comm    | 0.00016451 | 0.00016975 | 0.000175   |   0.0 |  9.25
Output  | 0          | 0          | 0          |   0.0 |  0.00
Modify  | 0          | 0          | 0          |   0.0 |  0.00
Other   |            | 0.0003608  |            |       | 19.67

Nlocal:        210.000 ave         210 max         210 min
Histogram: 2 0 0 0 0 0 0 0 0 0
Nghost:        95.0000 ave          95 max          95 min
Histogram: 2 0 0 0 0 0 0 0 0 0
Neighs:        1790.00 ave        1790 max        1790 min
Histogram: 2 0 0 0 0 0 0 0 0 0

Total # of neighbors = 3580
Ave neighs/atom = 8.5238095
Neighbor list builds = 2
Dangerous builds = 0
60 atoms in group lower
360 atoms in group mobile
Setting atom values ...
  60 settings made for type
21 atoms in group nebatoms
Setting atom values ...
  21 settings made for type
399 atoms in group nonneb
WARNING: Using 'neigh_modify every 1 delay 0 check yes' setting during minimization (../min.cpp:187)
Setting up quickmin style minimization ...
  Unit style    : lj
  Current step  : 0
Per MPI rank memory allocation (min/avg/max) = 3.931 | 3.931 | 3.931 Mbytes
Step Temp E_pair E_mol TotEng Press Volume 
       0            0   -3.0326948            0   -3.0326948  -0.42931073    454.94431 
     100 2.7923637e-07   -3.0470538            0   -3.0470536  -0.53370836    458.35396 
     150 1.5804799e-07   -3.0471204            0   -3.0471202  -0.53393989    458.35396 
Loop time of 0.023767 on 2 procs for 150 steps with 420 atoms

100.0% CPU use with 2 MPI tasks x no OpenMP threads

Minimization stats:
  Stopping criterion = force tolerance
  Energy initial, next-to-last, final = 
     -3.03269477854635  -3.04711937211592  -3.04712037417942
  Force two-norm initial, final = 141.10878 0.071702459
  Force max component initial, final = 114.30745 0.052002629
  Final line search alpha, max atom move = 0.0000000 0.0000000
  Iterations, force evaluations = 150 150

MPI task timing breakdown:
Section |  min time  |  avg time  |  max time  |%varavg| %total
---------------------------------------------------------------
Pair    | 0.0049965  | 0.0051616  | 0.0053267  |   0.2 | 21.72
Neigh   | 4.4107e-05 | 4.4584e-05 | 4.5061e-05 |   0.0 |  0.19
Comm    | 0.00058675 | 0.00073338 | 0.00088    |   0.0 |  3.09
Output  | 1.2875e-05 | 1.3471e-05 | 1.4067e-05 |   0.0 |  0.06
Modify  | 0.011631   | 0.011644   | 0.011657   |   0.0 | 48.99
Other   |            | 0.00617    |            |       | 25.96

Nlocal:        210.000 ave         214 max         206 min
Histogram: 1 0 0 0 0 0 0 0 0 1
Nghost:        95.0000 ave          99 max          91 min
Histogram: 1 0 0 0 0 0 0 0 0 1
Neighs:        1788.50 ave        1821 max        1756 min
Histogram: 1 0 0 0 0 0 0 0 0 1

Total # of neighbors = 3577
Ave neighs/atom = 8.5166667
Neighbor list builds = 1
Dangerous builds = 0
WARNING: Using 'neigh_modify every 1 delay 0 check yes' setting during minimization (../min.cpp:187)
Setting up quickmin style minimization ...
  Unit style    : lj
  Current step  : 150
Per MPI rank memory allocation (min/avg/max) = 3.931 | 3.931 | 3.931 Mbytes
Step Temp E_pair E_mol TotEng Press Volume 
     150            0   -3.0471204            0   -3.0471204  -0.53347574    458.75287 
     182 8.0445218e-08   -3.0471382            0   -3.0471381  -0.53348432    458.75287 
Loop time of 0.00478888 on 2 procs for 32 steps with 420 atoms

100.0% CPU use with 2 MPI tasks x no OpenMP threads

Minimization stats:
  Stopping criterion = force tolerance
  Energy initial, next-to-last, final = 
     -3.04712037417942  -3.04713786765515  -3.04713815975486
  Force two-norm initial, final = 0.062974985 0.040920573
  Force max component initial, final = 0.040279159 0.0081824364
  Final line search alpha, max atom move = 0.0000000 0.0000000
  Iterations, force evaluations = 32 32

MPI task timing breakdown:
Section |  min time  |  avg time  |  max time  |%varavg| %total
---------------------------------------------------------------
Pair    | 0.0011079  | 0.001123   | 0.001138   |   0.0 | 23.45
Neigh   | 0          | 0          | 0          |   0.0 |  0.00
Comm    | 0.00012803 | 0.00014043 | 0.00015283 |   0.0 |  2.93
Output  | 0          | 0          | 0          |   0.0 |  0.00
Modify  | 0.0015841  | 0.0015862  | 0.0015883  |   0.0 | 33.12
Other   |            | 0.001939   |            |       | 40.50

Nlocal:        210.000 ave         211 max         209 min
Histogram: 1 0 0 0 0 0 0 0 0 1
Nghost:        95.0000 ave          96 max          94 min
Histogram: 1 0 0 0 0 0 0 0 0 1
Neighs:        1788.50 ave        1799 max        1778 min
Histogram: 1 0 0 0 0 0 0 0 0 1

Total # of neighbors = 3577
Ave neighs/atom = 8.5166667
Neighbor list builds = 0
Dangerous builds = 0
Total wall time: 0:00:00
