 Lammps data file for nanotube
 
        8064 atoms
           1 atom types
 
  -105.8213       263.5972     xlo xhi
  -10.70881       42.94802     ylo yhi
  -80.00000       80.00000     zlo zhi
 
  Atoms
 
           1           1   8.339160       7.211070      3.6099798E-05
           2           1   9.741410       7.211070      3.6099798E-05
           3           1   10.39920       8.382970     -0.3606420    
           4           1   11.76050       8.313690     -0.6305120    
           5           1   8.339160       9.640430      3.6099798E-05
           6           1   9.698280       9.583110     -0.2714190    
           7           1   10.41450       10.77220     -0.2982090    
           8           1   11.79000       10.65300     -0.1215000    
           9           1   8.307360       11.97370     -0.3029560    
          10           1   9.682350       11.90910     -1.4652100E-02
          11           1   8.350830       14.25140      0.1991690    
          12           1   8.385530       19.61700      0.2113300    
          13           1   8.317550       21.86610     -0.3582790    
          14           1   9.708880       21.97060     -4.3214701E-02
          15           1   10.42740       23.11520     -0.3430200    
          16           1   11.79140       23.21050     -0.1496110    
          17           1   8.339160       24.21360      3.6099798E-05
          18           1   9.711840       24.29430     -0.3154980    
          19           1   10.42480       25.50280     -0.3683020    
          20           1   11.79520       25.55340     -0.6691370    
          21           1   12.50100       7.153740     -0.3609030    
          22           1   13.90880       7.152980     -0.3025260    
          23           1   14.57250       8.361030     -0.3623270    
          24           1   15.91130       8.305720     -4.9086198E-02
          25           1   12.46960       9.536300     -0.7541200    
          26           1   13.78260       9.487590     -0.1438130    
          27           1   12.49950       24.33290     -0.7480880    
          28           1   13.80700       24.37190     -0.1345160    
          29           1   14.57060       25.49670     -0.3209340    
          30           1   15.91400       25.54870      7.4204602E-03
          31           1   16.68720       7.136900     -0.3239390    
          32           1   18.07930       7.134200     -0.2372410    
          33           1   18.62110       8.319760      0.1675600    
          34           1   20.03480       8.319850      0.3213860    
          35           1   18.62790       25.51340      0.2189890    
          36           1   20.02430       25.51810      0.3437440    
          37           1   20.91710       7.236000      3.9144199E-02
          38           1   22.36460       7.211070      3.6099798E-05
          39           1   23.06590       8.478000      2.4267299E-02
          40           1   24.46890       8.425250      3.6099798E-05
          41           1   22.55420       9.784110      0.3238630    
          42           1   23.24990       11.02380      0.1852130    
          43           1   24.57400       10.89140     -0.2248280    
          44           1   24.65490       13.32050     -2.7969999E-02
          45           1   24.66130       15.77490     -0.1441150    
          46           1   24.66670       18.08530     -0.1277200    
          47           1   24.65690       20.52380     -2.0004399E-02
          48           1   23.27810       22.83340      0.2072890    
          49           1   24.59130       22.95460     -0.2425540    
          50           1   22.57160       24.04570      0.3311520    
          51           1   23.06670       25.37260      4.1463099E-02
          52           1   24.46890       25.42780      3.6099798E-05
          53           1   8.339160       7.211070       21.54300    
          54           1   9.741410       7.211070       21.54300    
          55           1   10.39270       8.362620       21.93120    
          56           1   11.77660       8.305790       22.17600    
          57           1   8.339160       9.640430       21.54300    
          58           1   9.696600       9.567420       21.85050    
          59           1   10.41730       10.75960       21.85740    
          60           1   11.79130       10.63360       21.64750    
          61           1   8.296090       11.97050       21.86850    
          62           1   9.694930       11.90660       21.57990    
          63           1   8.359380       14.23550       21.31950    
          64           1   8.380540       19.62600       21.37360    
          65           1   8.314470       21.90680       21.90620    
          66           1   9.698440       21.98180       21.56030    
          67           1   10.42090       23.10880       21.88130    
          68           1   11.79880       23.20620       21.70110    
          69           1   8.339160       24.21360       21.54300    
          70           1   9.703990       24.29350       21.86470    
          71           1   10.41520       25.49880       21.93850    
          72           1   11.78410       25.55380       22.20450    
          73           1   12.50700       7.156950       21.88840    
          74           1   13.88790       7.133570       21.83790    
          75           1   14.56270       8.356970       21.87870    
          76           1   15.91540       8.282180       21.55980    
          77           1   12.48240       9.525420       22.24090    
          78           1   13.80380       9.491480       21.67550    
          79           1   12.48090       24.32310       22.28630    
          80           1   13.79770       24.34340       21.67890    
          81           1   14.57000       25.49690       21.83620    
          82           1   15.90380       25.56360       21.50480    
          83           1   16.68340       7.132680       21.86680    
          84           1   18.07810       7.135030       21.78840    
          85           1   18.62210       8.331240       21.32020    
          86           1   20.03500       8.315970       21.20300    
          87           1   18.63200       25.53900       21.29850    
          88           1   20.04070       25.53490       21.20860    
          89           1   20.92370       7.237560       21.53240    
          90           1   22.36460       7.211070       21.54300    
          91           1   23.06790       8.487290       21.53350    
          92           1   24.46890       8.425250       21.54300    
          93           1   22.56900       9.795980       21.23230    
          94           1   23.25670       11.03400       21.34260    
          95           1   24.55920       10.89790       21.78730    
          96           1   24.64070       13.31940       21.58510    
          97           1   24.66430       15.74300       21.66780    
          98           1   24.66420       18.06910       21.67910    
          99           1   24.65540       20.50520       21.55530    
         100           1   23.27050       22.83160       21.34750    
         101           1   24.57740       22.97250       21.77100    
         102           1   22.56750       24.04960       21.22620    
         103           1   23.07510       25.36220       21.51100    
         104           1   24.46890       25.42780       21.54300    
         105           1   8.203670       17.59640       1.296230    
         106           1   8.198450       16.24870       1.326420    
         107           1   8.656370       15.61580       2.434240    
         108           1   9.216280       14.37290       2.404670    
         109           1   9.374310       13.87330       1.146450    
         110           1   10.10860       12.67480       1.074930    
         111           1   10.75660       12.08250       2.265280    
         112           1   11.83960       11.21480       2.303770    
         113           1   12.48240       10.93450       1.093890    
         114           1   13.70530       10.20960       1.085210    
         115           1   14.26260       9.767380       2.287960    
         116           1   15.57030       9.269360       2.243240    
         117           1   16.36070       9.024970       1.064770    
         118           1   17.76220       8.993600       1.124210    
         119           1   18.28290       9.100590       2.378510    
         120           1   19.63470       9.274290       2.425540    
         121           1   20.43690       9.177780       1.326460    
         122           1   21.60430       9.855390       1.331960    
         123           1   21.93370       10.61090       2.420610    
         124           1   22.68780       11.74130       2.392040    
         125           1   23.07630       12.09710       1.132540    
         126           1   23.78510       13.29830       1.057000    
         127           1   23.97640       14.12950       2.249500    
         128           1   24.16230       15.53670       2.283540    
         129           1   24.07770       16.21420       1.091080    
         130           1   24.05790       17.62950       1.097410    
         131           1   24.15740       18.32770       2.293810    
         132           1   24.00660       19.70770       2.240980    
         133           1   23.81850       20.55480       1.087720    
         134           1   23.09750       21.74930       1.143130    
         135           1   22.68450       22.11560       2.394480    
         136           1   21.92010       23.23080       2.432670    
         137           1   21.59470       23.95100       1.304590    
         138           1   20.46040       24.65920       1.319440    
         139           1   19.65200       24.54440       2.439700    
         140           1   18.29940       24.70280       2.399120    
         141           1   17.76700       24.84130       1.154610    
         142           1   16.38540       24.82560       1.107500    
         143           1   15.56070       24.54920       2.245240    
         144           1   14.27660       24.01560       2.272070    
         145           1   13.68810       23.64620       1.073040    
         146           1   12.45540       22.96400       1.086400    
         147           1   11.83410       22.63470       2.281630    
         148           1   10.72940       21.79150       2.219260    
         149           1   10.10620       21.21960       1.059740    
         150           1   9.436580       19.98860       1.111320    
         151           1   9.337900       19.43950       2.381010    
         152           1   8.708160       18.23730       2.408960    
         153           1   8.627220       17.59300       3.609470    
         154           1   8.577970       16.23650       3.627100    
         155           1   8.840250       15.53130       4.727040    
         156           1   9.203310       14.17910       4.727040    
         157           1   9.511590       13.63430       3.530500    
         158           1   10.24850       12.44070       3.517560    
         159           1   10.59860       11.76170       4.727040    
         160           1   11.58870       10.77160       4.727040    
         161           1   12.25300       10.55630       3.500570    
         162           1   13.49460       9.870300       3.498010    
         163           1   14.00610       9.376390       4.727040    
         164           1   15.35940       9.014330       4.727040    
         165           1   16.13290       9.012290       3.513700    
         166           1   17.52080       8.982540       3.511390    
         167           1   18.14990       9.014330       4.727040    
         168           1   19.50310       9.376390       4.727040    
         169           1   20.19610       9.612130       3.610560    
         170           1   21.38180       10.25290       3.600590    
         171           1   21.92050       10.77160       4.727040    
         172           1   22.91070       11.76170       4.727040    
         173           1   23.24700       12.31320       3.516100    
         174           1   23.89070       13.53700       3.513940    
         175           1   24.30590       14.17910       4.727040    
         176           1   24.66900       15.53130       4.727040    
         177           1   24.46840       16.21900       3.481370    
         178           1   24.50380       17.62930       3.491830    
         179           1   24.66900       18.32170       4.727040    
         180           1   24.30590       19.67490       4.727040    
         181           1   23.89550       20.31000       3.505480    
         182           1   23.22120       21.52230       3.521500    
         183           1   22.91070       22.09130       4.727040    
         184           1   21.92050       23.08140       4.727040    
         185           1   21.37050       23.57890       3.614470    
         186           1   20.20190       24.22650       3.616250    
         187           1   19.50310       24.47760       4.727040    
         188           1   18.14990       24.83970       4.727040    
         189           1   17.51280       24.86460       3.528670    
         190           1   16.11370       24.78760       3.520060    
         191           1   15.35940       24.83970       4.727040    
         192           1   14.00610       24.47660       4.727040    
         193           1   13.52620       23.90730       3.489000    
         194           1   12.27570       23.27010       3.488470    
         195           1   11.58870       23.08140       4.727040    
         196           1   10.59860       22.09130       4.727040    
         197           1   10.23820       21.43180       3.494690    
         198           1   9.583650       20.20980       3.509220    
         199           1   9.203310       19.67490       4.727040    
         200           1   8.840250       18.32170       4.727040    
         201           1   8.749230       17.62660       5.936040    
         202           1   8.749230       16.22640       5.936040    
         203           1   8.840250       15.53130       7.145040    
         204           1   9.203310       14.17910       7.145040    
         205           1   9.471360       13.53100       5.936040    
         206           1   10.17150       12.31780       5.936040    
         207           1   10.59860       11.76170       7.145040    
         208           1   11.58870       10.77160       7.145040    
         209           1   12.14480       10.34450       5.936040    
         210           1   13.35800       9.644430       5.936040    
         211           1   14.00610       9.376390       7.145040    
         212           1   15.35940       9.014330       7.145040    
         213           1   16.05450       8.922320       5.936040    
         214           1   17.45470       8.922320       5.936040    
         215           1   18.14990       9.014330       7.145040    
         216           1   19.50310       9.376390       7.145040    
         217           1   20.15120       9.644430       5.936040    
         218           1   21.36440       10.34450       5.936040    
         219           1   21.92050       10.77160       7.145040    
         220           1   22.91070       11.76170       7.145040    
         221           1   23.33770       12.31780       5.936040    
         222           1   24.03790       13.53100       5.936040    
         223           1   24.30590       14.17910       7.145040    
         224           1   24.66900       15.53130       7.145040    
         225           1   24.76000       16.22640       5.936040    
         226           1   24.76000       17.62660       5.936040    
         227           1   24.66900       18.32170       7.145040    
         228           1   24.30590       19.67490       7.145040    
         229           1   24.03790       20.32300       5.936040    
         230           1   23.33770       21.53520       5.936040    
         231           1   22.91070       22.09130       7.145040    
         232           1   21.92050       23.08140       7.145040    
         233           1   21.36440       23.50850       5.936040    
         234           1   20.15120       24.20860       5.936040    
         235           1   19.50310       24.47760       7.145040    
         236           1   18.14990       24.83970       7.145040    
         237           1   17.45470       24.93070       5.936040    
         238           1   16.05450       24.93070       5.936040    
         239           1   15.35940       24.83970       7.145040    
         240           1   14.00610       24.47660       7.145040    
         241           1   13.35800       24.20860       5.936040    
         242           1   12.14480       23.50850       5.936040    
         243           1   11.58870       23.08140       7.145040    
         244           1   10.59860       22.09130       7.145040    
         245           1   10.17150       21.53520       5.936040    
         246           1   9.471360       20.32200       5.936040    
         247           1   9.203310       19.67490       7.145040    
         248           1   8.840250       18.32170       7.145040    
         249           1   8.749230       17.62660       8.354040    
         250           1   8.749230       16.22640       8.354040    
         251           1   8.840250       15.53130       9.563040    
         252           1   9.203310       14.17910       9.563040    
         253           1   9.471360       13.53100       8.354040    
         254           1   10.17150       12.31780       8.354040    
         255           1   10.59860       11.76170       9.563040    
         256           1   11.58870       10.77160       9.563040    
         257           1   12.14480       10.34450       8.354040    
         258           1   13.35800       9.644430       8.354040    
         259           1   14.00610       9.376390       9.563040    
         260           1   15.35940       9.014330       9.563040    
         261           1   16.05450       8.922320       8.354040    
         262           1   17.45470       8.922320       8.354040    
         263           1   18.14990       9.014330       9.563040    
         264           1   19.50310       9.376390       9.563040    
         265           1   20.15120       9.644430       8.354040    
         266           1   21.36440       10.34450       8.354040    
         267           1   21.92050       10.77160       9.563040    
         268           1   22.91070       11.76170       9.563040    
         269           1   23.33770       12.31780       8.354040    
         270           1   24.03790       13.53100       8.354040    
         271           1   24.30590       14.17910       9.563040    
         272           1   24.66900       15.53130       9.563040    
         273           1   24.76000       16.22640       8.354040    
         274           1   24.76000       17.62660       8.354040    
         275           1   24.66900       18.32170       9.563040    
         276           1   24.30590       19.67490       9.563040    
         277           1   24.03790       20.32300       8.354040    
         278           1   23.33770       21.53520       8.354040    
         279           1   22.91070       22.09130       9.563040    
         280           1   21.92050       23.08140       9.563040    
         281           1   21.36440       23.50850       8.354040    
         282           1   20.15120       24.20860       8.354040    
         283           1   19.50310       24.47760       9.563040    
         284           1   18.14990       24.83970       9.563040    
         285           1   17.45470       24.93070       8.354040    
         286           1   16.05450       24.93070       8.354040    
         287           1   15.35940       24.83970       9.563040    
         288           1   14.00610       24.47660       9.563040    
         289           1   13.35800       24.20860       8.354040    
         290           1   12.14480       23.50850       8.354040    
         291           1   11.58870       23.08140       9.563040    
         292           1   10.59860       22.09130       9.563040    
         293           1   10.17150       21.53520       8.354040    
         294           1   9.471360       20.32200       8.354040    
         295           1   9.203310       19.67490       9.563040    
         296           1   8.840250       18.32170       9.563040    
         297           1   8.749230       17.62660       10.77100    
         298           1   8.749230       16.22640       10.77100    
         299           1   8.840250       15.53130       11.98100    
         300           1   9.203310       14.17910       11.98100    
         301           1   9.471360       13.53100       10.77100    
         302           1   10.17150       12.31780       10.77100    
         303           1   10.59860       11.76170       11.98100    
         304           1   11.58870       10.77160       11.98100    
         305           1   12.14480       10.34450       10.77100    
         306           1   13.35800       9.644430       10.77100    
         307           1   14.00610       9.376390       11.98100    
         308           1   15.35940       9.014330       11.98100    
         309           1   16.05450       8.922320       10.77100    
         310           1   17.45470       8.922320       10.77100    
         311           1   18.14990       9.014330       11.98100    
         312           1   19.50310       9.376390       11.98100    
         313           1   20.15120       9.644430       10.77100    
         314           1   21.36440       10.34450       10.77100    
         315           1   21.92050       10.77160       11.98100    
         316           1   22.91070       11.76170       11.98100    
         317           1   23.33770       12.31780       10.77100    
         318           1   24.03790       13.53100       10.77100    
         319           1   24.30590       14.17910       11.98100    
         320           1   24.66900       15.53130       11.98100    
         321           1   24.76000       16.22640       10.77100    
         322           1   24.76000       17.62660       10.77100    
         323           1   24.66900       18.32170       11.98100    
         324           1   24.30590       19.67490       11.98100    
         325           1   24.03790       20.32300       10.77100    
         326           1   23.33770       21.53520       10.77100    
         327           1   22.91070       22.09130       11.98100    
         328           1   21.92050       23.08140       11.98100    
         329           1   21.36440       23.50850       10.77100    
         330           1   20.15120       24.20860       10.77100    
         331           1   19.50310       24.47760       11.98100    
         332           1   18.14990       24.83970       11.98100    
         333           1   17.45470       24.93070       10.77100    
         334           1   16.05450       24.93070       10.77100    
         335           1   15.35940       24.83970       11.98100    
         336           1   14.00610       24.47660       11.98100    
         337           1   13.35800       24.20860       10.77100    
         338           1   12.14480       23.50850       10.77100    
         339           1   11.58870       23.08140       11.98100    
         340           1   10.59860       22.09130       11.98100    
         341           1   10.17150       21.53520       10.77100    
         342           1   9.471360       20.32200       10.77100    
         343           1   9.203310       19.67490       11.98100    
         344           1   8.840250       18.32170       11.98100    
         345           1   8.749230       17.62660       13.18900    
         346           1   8.749230       16.22640       13.18900    
         347           1   8.840250       15.53130       14.39800    
         348           1   9.203310       14.17910       14.39800    
         349           1   9.471360       13.53100       13.18900    
         350           1   10.17150       12.31780       13.18900    
         351           1   10.59860       11.76170       14.39800    
         352           1   11.58870       10.77160       14.39800    
         353           1   12.14480       10.34450       13.18900    
         354           1   13.35800       9.644430       13.18900    
         355           1   14.00610       9.376390       14.39800    
         356           1   15.35940       9.014330       14.39800    
         357           1   16.05450       8.922320       13.18900    
         358           1   17.45470       8.922320       13.18900    
         359           1   18.14990       9.014330       14.39800    
         360           1   19.50310       9.376390       14.39800    
         361           1   20.15120       9.644430       13.18900    
         362           1   21.36440       10.34450       13.18900    
         363           1   21.92050       10.77160       14.39800    
         364           1   22.91070       11.76170       14.39800    
         365           1   23.33770       12.31780       13.18900    
         366           1   24.03790       13.53100       13.18900    
         367           1   24.30590       14.17910       14.39800    
         368           1   24.66900       15.53130       14.39800    
         369           1   24.76000       16.22640       13.18900    
         370           1   24.76000       17.62660       13.18900    
         371           1   24.66900       18.32170       14.39800    
         372           1   24.30590       19.67490       14.39800    
         373           1   24.03790       20.32300       13.18900    
         374           1   23.33770       21.53520       13.18900    
         375           1   22.91070       22.09130       14.39800    
         376           1   21.92050       23.08140       14.39800    
         377           1   21.36440       23.50850       13.18900    
         378           1   20.15120       24.20860       13.18900    
         379           1   19.50310       24.47760       14.39800    
         380           1   18.14990       24.83970       14.39800    
         381           1   17.45470       24.93070       13.18900    
         382           1   16.05450       24.93070       13.18900    
         383           1   15.35940       24.83970       14.39800    
         384           1   14.00610       24.47660       14.39800    
         385           1   13.35800       24.20860       13.18900    
         386           1   12.14480       23.50850       13.18900    
         387           1   11.58870       23.08140       14.39800    
         388           1   10.59860       22.09130       14.39800    
         389           1   10.17150       21.53520       13.18900    
         390           1   9.471360       20.32200       13.18900    
         391           1   9.203310       19.67490       14.39800    
         392           1   8.840250       18.32170       14.39800    
         393           1   8.749230       17.62660       15.60700    
         394           1   8.749230       16.22640       15.60700    
         395           1   8.840250       15.53130       16.81600    
         396           1   9.203310       14.17910       16.81600    
         397           1   9.471360       13.53100       15.60700    
         398           1   10.17150       12.31780       15.60700    
         399           1   10.59860       11.76170       16.81600    
         400           1   11.58870       10.77160       16.81600    
         401           1   12.14480       10.34450       15.60700    
         402           1   13.35800       9.644430       15.60700    
         403           1   14.00610       9.376390       16.81600    
         404           1   15.35940       9.014330       16.81600    
         405           1   16.05450       8.922320       15.60700    
         406           1   17.45470       8.922320       15.60700    
         407           1   18.14990       9.014330       16.81600    
         408           1   19.50310       9.376390       16.81600    
         409           1   20.15120       9.644430       15.60700    
         410           1   21.36440       10.34450       15.60700    
         411           1   21.92050       10.77160       16.81600    
         412           1   22.91070       11.76170       16.81600    
         413           1   23.33770       12.31780       15.60700    
         414           1   24.03790       13.53100       15.60700    
         415           1   24.30590       14.17910       16.81600    
         416           1   24.66900       15.53130       16.81600    
         417           1   24.76000       16.22640       15.60700    
         418           1   24.76000       17.62660       15.60700    
         419           1   24.66900       18.32170       16.81600    