LAMMPS (29 Oct 2020)
Reading data file ...
  orthogonal box = (-105.82130 -10.708810 -80.000000) to (263.59720 42.948020 80.000000)
  7 by 2 by 2 MPI processor grid
  reading atoms ...
  8064 atoms
  read_data CPU = 0.017 seconds
Reading airebo potential file CH_tensile.airebo with DATE: 2011-10-25
88 atoms in group 1
132 atoms in group 2
3216 atoms in group 3
3200 atoms in group 4
44 atoms in group ld
66 atoms in group rd
44 atoms in group lu
66 atoms in group ru
110 atoms in group boundaryup
8064 atoms in group gra1
7954 atoms in group fixnvt
Neighbor list info ...
  update every 1 steps, delay 0 steps, check yes
  max neighbors/atom: 2000, page size: 100000
  master list distance cutoff = 12.2
  ghost atom cutoff = 12.2
  1 neighbor lists, perpetual/occasional/extra = 1 0 0
  (1) pair airebo, perpetual
      attributes: full, newton on, ghost
      pair build: full/nsq/ghost
      stencil: none
      bin: none
Setting up Verlet run ...
  Unit style    : metal
  Current step  : 0
  Time step     : 0.0005
Per MPI rank memory allocation (min/avg/max) = 6.168 | 6.223 | 6.584 Mbytes
Step Temp PotEng TotEng Pyy Ly v_rux v_vrux v_disz 
       0            0   -61648.861   -61648.861   -5372.7178     53.65683    163.01587            0    21.554782 
    1000    342.02144   -62054.084   -61697.621    176.00229    53.281724    162.81563   0.07703217    22.435216 
    2000    327.98935    -62052.11   -61710.271    194.88815    53.389719    162.50252  -0.59568871    23.269297 
    3000    321.43003   -62054.716   -61719.714    587.80731    53.346308    162.17239  -0.64307311    23.898888 
    4000    310.79768   -62067.899   -61743.978     166.2681    53.283866    161.65814  -0.70573293    24.095105 
    5000    307.57988    -62056.38   -61735.812    -927.4356    53.328812    161.03146   -1.2618963    23.992744 
    6000    317.51556   -62074.612    -61743.69    1040.7689    53.394205    160.84475  -0.58662721    23.373898 
    7000    309.92161   -62047.883   -61724.875    467.44702    53.422263    161.03488  -0.52433988    22.951381 
    8000    315.60449   -62073.635   -61744.704   -742.66846    53.403064    160.97782  -0.40534928    23.126028 
    9000    316.93415   -62074.049   -61743.733   -1.0928155    53.381408    161.00917 -0.084728715    23.559156 
   10000    311.27405   -62076.707    -61752.29   -446.15356    53.369037    161.27533   0.15228139    23.811084 
   11000    309.15228   -62068.333   -61746.127   -840.30614    53.364615    161.65182   0.97599993    23.969725 
   12000     314.2422   -62058.105   -61730.594    383.48782    53.356175    161.96072  0.046393316    23.994232 
   13000    310.06743   -62059.483   -61736.324   -403.61329    53.387039     162.1755    1.3861136    23.727456 
   14000     312.4125   -62065.296   -61739.692    -1274.463    53.425513    162.23683    0.5413839    23.412332 
   15000    310.09459   -62062.811   -61739.623   -2059.2094    53.446543     162.1758  -0.46260553    23.268376 
   16000    311.23404   -62073.022   -61748.646   -492.12208     53.39286     162.1191  -0.16040511    23.392266 
   17000     311.5269   -62062.367   -61737.686    242.91239    53.388032     161.9496   0.23614393    23.606314 
   18000     315.0663   -62068.032   -61739.663    -225.4086    53.412327    161.68483  -0.62866269    23.787551 
   19000    319.44212   -62072.592   -61739.661    1111.4911    53.351232    161.63222   0.26571172    23.973887 
   20000    309.70319    -62065.89    -61743.11     1427.853    53.371671     161.4624  -0.15554162    23.971901 
   21000    309.71972   -62071.714   -61748.916    242.91169     53.38807    161.36347  -0.38729563    23.865029 
   22000    310.99727   -62070.908   -61746.779   -1453.1122    53.421591    161.42328  -0.47575754    23.678702 
   23000    314.38438   -62079.559     -61751.9    239.27413    53.388434    161.52996 -0.076095201    23.553542 
   24000     309.0817   -62081.312   -61759.179     152.0212    53.387675    161.49542   0.75017756    23.582031 
   25000    306.62282   -62076.301   -61756.732    473.87525    53.393973    161.65864   0.42881844    23.682495 
   26000    312.72543     -62072.6    -61746.67    665.00221    53.366565    161.85619   0.10962966    23.817531 
   27000    308.39669   -62063.047   -61741.628    213.25938    53.376768    162.02196  -0.44152958    23.894978 
   28000    314.63769   -62074.553   -61746.629    11.294677    53.379688    161.93406   -0.7129919    23.870628 
   29000    313.90818   -62059.136   -61731.973    256.97981    53.387517    161.96445  -0.41789872    23.741803 
   30000     310.7924   -62068.877   -61744.961    205.94326    53.397955    161.95774   0.14286807    23.605068 
   31000     309.4164   -62069.013   -61746.531   -238.39876    53.401649    161.84403    1.0241958     23.56382 
   32000    310.01596   -62081.776    -61758.67    514.43088    53.376349    161.78619   -0.2034069    23.615525 
   33000    306.46413   -62063.027   -61743.622    113.90313    53.408812    161.68585   0.49035246     23.72001 
   34000    315.93006   -62058.159   -61728.889   -61.255803    53.391735    161.61271 -0.010045297    23.808381 
   35000     313.5878   -62063.646   -61736.818     876.7062    53.399457    161.66958   0.30823146    23.864006 
   36000    313.75006   -62060.502   -61733.504   -223.88239    53.421402    161.70668  -0.36620594    23.833294 
   37000    315.92028   -62067.939   -61738.679   -392.73856    53.400923    161.70039  -0.15224684     23.75795 
   38000     307.5332   -62056.752   -61736.233   -126.02216      53.4138    161.73537   0.58757591     23.67792 
   39000     314.8151    -62060.41   -61732.302    502.06405    53.389044    161.82317  -0.13443882    23.610235 
   40000    318.77279   -62069.748   -61737.515   -319.35417    53.390172    161.85621   0.72481782    23.622995 
   41000    317.63629   -62060.898    -61729.85   -1167.6751    53.423987    161.88914   0.64010641    23.669231 
   42000    315.86788   -62061.629   -61732.424    170.31314    53.370258    161.91395  -0.59885212    23.721247 
   43000     309.7539   -62068.568   -61745.735     812.7206    53.364789     161.9439  -0.46381222    23.741948 
   44000    315.81278   -62080.197   -61751.049    1106.9747    53.374921    161.89303   0.14263094    23.752958 
   45000    313.72192   -62083.431   -61756.463   -603.99295    53.407004    161.84888   0.55188612    23.728362 
   46000    310.74353   -62070.975    -61747.11   -137.31242    53.413716    161.84294   0.59885692    23.687103 
   47000    319.95405   -62054.944    -61721.48      834.511    53.398215    161.79533  -0.10705152    23.665118 
   48000     311.4193   -62063.187   -61738.618   -43.575268    53.392485    161.73182   0.80826205    23.664244 
   49000    311.93327   -62062.597   -61737.493    1211.6399    53.369669    161.72467  -0.55160942    23.686927 
   50000    312.27398   -62060.188   -61734.729    210.36344    53.397522    161.75337   0.19615724    23.714986 
   51000    315.55523   -62065.634   -61736.754   -1667.2683    53.427637    161.79253   0.70525449    23.752619 
   52000    318.78044   -62070.505   -61738.264   -1258.2752    53.417745     161.7941  -0.54149353      23.7601 
   53000    312.98069   -62068.099   -61741.903   -631.33873    53.394454    161.83402 -0.094599975     23.73679 
   54000     307.3085   -62066.422   -61746.138    622.58522       53.376    161.84769 0.0064954323    23.713878 
   55000    311.51846   -62073.246   -61748.574    680.30051    53.389002     161.8499   0.45580579    23.674631 
   56000    309.51991   -62053.839    -61731.25    709.84688    53.385117    161.88353  -0.54955759    23.676583 
   57000    310.37416    -62070.71    -61747.23    1657.0913    53.385657    161.84183    1.3500164    23.685784 
   58000    315.75882   -62064.129   -61735.037   -146.61362    53.407045    161.84356   0.35982427     23.71145 
   59000     313.5461   -62068.672   -61741.887   -338.78883    53.372748    161.87092  -0.55963862     23.73289 
   60000    319.43165   -62070.796   -61737.876   -1043.6482    53.408438    161.84241  -0.87424413    23.739138 
   61000    316.93471   -62065.287    -61734.97   -927.27033    53.413673    161.83903  -0.17485077    23.722965 
   62000    314.46251   -62052.298   -61724.558    826.61799    53.391409    161.77721  -0.57605924    23.720947 
   63000    314.78932    -62064.79   -61736.709   -343.25062    53.394936    161.83744   0.23519578     23.70683 
   64000    308.49974   -62058.483   -61736.957   -480.04185    53.390152    161.78761  -0.98110806    23.689056 
   65000    313.21568    -62070.01   -61743.569   -187.24572    53.387075    161.76884  -0.66376176    23.702282 
   66000    310.58691   -62060.878   -61737.177    1153.7905     53.38017    161.79374  -0.64382041    23.719157 
   67000    311.00523   -62068.723   -61744.586     491.6328    53.386254    161.78563 -0.0046264925    23.731787 
   68000    311.90036   -62071.832   -61746.762   -521.50702    53.401874    161.82292    2.0799181    23.724459 
   69000    315.45318   -62078.474   -61749.701    677.10259    53.379256    161.80712   -0.2897503    23.725476 
   70000    313.46133   -62069.048   -61742.351    384.08081      53.3781    161.79073  -0.12075165    23.719388 
   71000    308.19459   -62060.861   -61739.653    -237.0752     53.40576    161.82361   -1.3113783    23.705305 
   72000     316.6846   -62060.021   -61729.965    488.08065    53.379873    161.83824  -0.63285124    23.706051 
   73000    315.22352   -62062.712   -61734.178    169.69321    53.402205    161.88182   -1.5876387    23.709663 
   74000    311.38154   -62060.376   -61735.846   -404.97515    53.425823    161.80876   -0.8849954    23.710559 
   75000    312.34101   -62056.524   -61730.995    9.3152118    53.412461    161.84929   0.28969932    23.726487 
   76000    310.62016   -62062.065   -61738.329   -119.79643     53.40344    161.81455  -0.28173227    23.726969 
   77000    313.76328   -62068.609   -61741.598   -162.91471    53.396331    161.85072  -0.42895148    23.721659 
   78000    316.15423   -62053.985   -61724.481    810.45613    53.392151    161.79026   0.79378181    23.722675 
   79000    318.88527   -62076.788   -61744.438   -1200.2218    53.422271    161.80695  -0.12787297    23.712091 
   80000    312.00437   -62068.011   -61742.832   -947.67423    53.428595     161.8018 -0.053994048    23.708494 
   81000     313.4335   -62071.653   -61744.985    300.36833    53.390155    161.80935   0.25739135    23.709026 
   82000    317.01045   -62059.043   -61728.647    395.13918    53.399924    161.80438   -0.8454907    23.713329 
   83000    314.36529   -62062.929    -61735.29    605.66819    53.388571    161.81539 -0.098061782    23.722735 
   84000    315.44432   -62070.063     -61741.3    570.39666    53.392267    161.82309    0.7411864    23.715926 
   85000    312.41508   -62073.379   -61747.773    1019.1284     53.38934    161.83603   0.18114133    23.719607 
   86000    314.40845   -62070.781   -61743.097    669.09983    53.386435    161.82351  -0.55578754    23.713407 
   87000    318.84975   -62063.548   -61731.235   -597.41637    53.411141    161.81107   0.66791438    23.710974 
   88000    314.75191   -62073.353   -61745.311   -970.43307    53.406701    161.81075   0.85643048    23.708574 
   89000    305.16057   -62071.918   -61753.872   -585.83435    53.416231    161.84092   0.69392974    23.712953 
   90000    306.96666   -62072.966   -61753.038    724.00953    53.381367    161.77194 -0.063740095    23.719377 
   91000    308.64046   -62064.566   -61742.893    209.25808    53.400802    161.79235   0.18961435    23.731687 
   92000     314.6454   -62053.368   -61725.437    969.59447    53.402987    161.77638   0.51851982     23.72073 
   93000    318.41846   -62063.799   -61731.936   -711.95944    53.420652    161.79079   0.89825415    23.722486 
   94000    304.81298   -62056.338   -61738.655    358.11998    53.403685    161.78664  0.098370943    23.708327 
   95000    311.37101   -62062.926   -61738.407   -808.02637    53.405959    161.78618  -0.66099476    23.714164 
   96000     311.6078   -62060.746   -61735.981   -162.01071    53.409862    161.84585  -0.61063125    23.711423 
   97000    316.87762   -62068.339   -61738.082   -109.92808    53.400042    161.86132  -0.16857399    23.713299 
   98000    315.93693    -62072.13   -61742.853    897.31346    53.370617    161.83816   0.35154658    23.714563 
   99000    319.12818   -62065.487   -61732.883     203.8844    53.383888     161.8325  -0.17664296    23.722944 
  100000    314.28843   -62063.862   -61736.303    50.208656    53.394183     161.8053  -0.21136595    23.721106 
Loop time of 359.83 on 28 procs for 100000 steps with 8064 atoms

Performance: 12.006 ns/day, 1.999 hours/ns, 277.909 timesteps/s
99.0% CPU use with 28 MPI tasks x no OpenMP threads

MPI task timing breakdown:
Section |  min time  |  avg time  |  max time  |%varavg| %total
---------------------------------------------------------------
Pair    | 228.6      | 273.8      | 344.77     | 195.4 | 76.09
Neigh   | 0.39832    | 0.69726    | 0.98398    |  22.0 |  0.19
Comm    | 5.619      | 59.696     | 121.88     | 429.1 | 16.59
Output  | 0.029664   | 0.030508   | 0.05251    |   2.4 |  0.01
Modify  | 7.3741     | 24.663     | 67.518     | 508.2 |  6.85
Other   |            | 0.9477     |            |       |  0.26

Nlocal:        288.000 ave         340 max         242 min
Histogram: 4 0 2 7 2 5 3 1 2 2
Nghost:        1705.50 ave        2018 max        1170 min
Histogram: 4 0 3 1 0 0 4 5 3 8
Neighs:        0.00000 ave           0 max           0 min
Histogram: 28 0 0 0 0 0 0 0 0 0
FullNghs:      55945.6 ave       72112 max       45218 min
Histogram: 4 5 2 4 4 3 2 0 2 2

Total # of neighbors = 1566476
Ave neighs/atom = 194.25546
Neighbor list builds = 70
Dangerous builds = 0
Setting up Verlet run ...
  Unit style    : metal
  Current step  : 100000
  Time step     : 0.0005
Per MPI rank memory allocation (min/avg/max) = 6.169 | 6.252 | 6.585 Mbytes
Step Temp PotEng TotEng Pyy Ly c_gra1temp v_disz v_rux v_vrux f_4[1] 
  100000     312.2906   -62063.862   -61738.385    37.061908    53.394183    312.28995    23.721106     161.8053          0.1   -9.4827218 
  101000    296.61728   -62172.644   -61863.502   -10924.043    53.394183    296.44509    24.294651     161.8553          0.1   -12.798262 
  102000    294.90438   -62183.341   -61875.984     -9138.93    53.394183    293.55942    25.182542     161.9053          0.1   -11.561784 
  103000    290.26403   -62182.317   -61879.797    -12938.16    53.394183    288.35559    26.091193     161.9553          0.1   -4.9497969 
  104000    294.50371   -62179.921   -61872.982   -10923.163    53.394183    292.74568     26.51286     162.0053          0.1    2.9698089 
  105000    302.52059   -62170.319   -61855.024   -12616.393    53.394183    301.98892    26.441055     162.0553          0.1     7.593974 
  106000    296.51556   -62177.939   -61868.904   -10317.234    53.394183    296.48453    25.843421     162.1053          0.1 -0.073513987 
  107000    297.89319   -62184.487   -61874.015    -7570.085    53.394183    297.45459    25.112244     162.1553          0.1    4.6677842 
  108000    298.47866   -62175.739   -61864.657   -7735.2576    53.394183    298.18996    24.797565     162.2053          0.1    2.0093278 
  109000    297.34074   -62178.107   -61868.211   -9084.6415    53.394183    296.93006    24.860773     162.2553          0.1   -2.6116354 
  110000    297.61283   -62183.518   -61873.338   -8423.4375    53.394183    296.98483    25.104469     162.3053          0.1   -5.3128115 
  111000    301.34136   -62175.916    -61861.85   -9765.0876    53.394183    301.09012    25.395742     162.3553          0.1   -3.3121042 
  112000    296.12685   -62182.375   -61873.744   -10339.785    53.394183    296.04782    25.680366     162.4053          0.1   -5.0560658 
  113000    294.18133    -62181.72   -61875.117   -9734.3542    53.394183    293.74759    25.765701     162.4553          0.1   -12.065225 
  114000    298.67455   -62179.795   -61868.509   -10038.812    53.394183    296.92684    25.575195     162.5053          0.1   -9.1952031 
  115000    294.46033   -62176.124    -61869.23   -9325.7255    53.394183    292.88243    25.287815     162.5553          0.1    5.3087433 
  116000    299.04971   -62175.685   -61864.008   -9994.4806    53.394183    298.99149    24.991061     162.6053          0.1    2.4820361 
  117000    299.97755   -62178.238   -61865.594    -10133.21    53.394183    299.88771    24.949651     162.6553          0.1  -0.69231517 
  118000    300.45424   -62178.791    -61865.65   -9622.0617    53.394183    299.93888    25.229433     162.7053          0.1    7.9062508 
  119000    298.56697   -62179.416   -61868.242   -9609.0737    53.394183    298.35018    25.607805     162.7553          0.1   -8.2206405 
  120000    295.32443   -62183.049   -61875.255   -11110.886    53.394183    295.23891    25.701115     162.8053          0.1   -9.2592964 
  121000    295.89413   -62173.739   -61865.351   -11194.494    53.394183    295.89011     25.47804     162.8553          0.1    -14.66656 
  122000    297.13157   -62179.986   -61870.309   -10139.943    53.394183    296.80874    25.122218     162.9053          0.1   -5.1428628 
  123000    294.95296   -62185.135   -61877.728   -9373.2121    53.394183    294.79455    24.904088     162.9553          0.1   -17.824906 
  124000    296.15873    -62176.63   -61867.966   -9802.3887    53.394183    295.85971    24.816011     163.0053          0.1   -2.1192751 
  125000    298.87049   -62179.815   -61868.324   -9707.2859    53.394183    298.57846    24.937468     163.0553          0.1   -2.2990951 
  126000     297.0318   -62180.029   -61870.455   -9843.5112    53.394183     296.7488    25.148108     163.1053          0.1   -7.7359441 
  127000    296.51926   -62186.883   -61877.844   -10900.407    53.394183    296.40007     25.31676     163.1553          0.1    3.3356387 
  128000    294.76359   -62180.286   -61873.076   -10589.622    53.394183    294.70059    25.461688     163.2053          0.1   -6.9705741 
  129000    298.45506   -62181.891   -61870.833   -9676.0897    53.394183    298.24221    25.589087     163.2553          0.1   -3.9099527 
  130000    297.71367   -62180.047   -61869.763   -10089.968    53.394183    297.66677     25.65265     163.3053          0.1    -13.24266 
  131000    298.99605   -62177.335   -61865.714   -10291.004    53.394183    298.98914    25.379895     163.3553          0.1   -7.4660372 
  132000    293.76101   -62183.412   -61877.247   -9307.0449    53.394183    293.75573    24.905686     163.4053          0.1   -6.0775771 
  133000    293.10266   -62174.572   -61869.093   -9593.4005    53.394183    292.75562    24.591102     163.4553          0.1   -11.682733 
  134000    296.19868   -62177.328   -61868.623   -8734.7124    53.394183    296.06949    24.503223     163.5053          0.1   -3.4138302 
  135000    303.54501   -62179.938   -61863.576   -9735.6843    53.394183    303.44039    24.787754     163.5553          0.1   -13.172464 
  136000    293.47523   -62181.485   -61875.617   -9580.1261    53.394183    293.23441    25.295844     163.6053          0.1    -1.899732 
  137000    298.96051   -62178.562   -61866.978   -11638.985    53.394183    298.94176    25.684097     163.6553          0.1   -4.4249931 
  138000    293.65273   -62179.465   -61873.413   -10447.122    53.394183    293.59808    25.616975     163.7053          0.1    -2.750404 
  139000     298.8857   -62176.629   -61865.123   -10783.456    53.394183    298.83343     25.37762     163.7553          0.1   -8.8762638 
  140000    296.99855   -62188.068   -61878.528   -9899.5223    53.394183    296.92726    25.057578     163.8053          0.1   -7.8982111 
  141000    297.84062   -62177.924   -61867.508   -10453.164    53.394183     297.5761    24.666424     163.8553          0.1   -1.0929211 
  142000    296.09379   -62170.579   -61861.983   -8884.6417    53.394183    295.92484    24.326485     163.9053          0.1    -17.38494 
  143000    294.67389   -62177.536    -61870.42   -9576.0392    53.394183    294.67099    24.427392     163.9553          0.1   -12.570446 
  144000    301.82736   -62176.488   -61861.916    -11136.64    53.394183    301.12954    24.910903     164.0053          0.1    3.4080164 
  145000    298.10862   -62179.547   -61868.851   -10952.299    53.394183    296.68795    25.389032     164.0553          0.1   -14.874636 
  146000    300.95004   -62168.878    -61855.22   -12610.881    53.394183     300.1927    25.726361     164.1053          0.1   -3.3225051 
  147000    293.85098   -62174.452   -61868.194    -10236.65    53.394183    293.58802    25.548956     164.1553          0.1   -5.5113484 
  148000    295.65844   -62180.078   -61871.935   -10129.375    53.394183    295.64408    25.008302     164.2053          0.1   -4.6972831 
  149000    298.38652   -62173.354   -61862.369    -8916.702    53.394183    297.94889    24.449575     164.2553          0.1   -3.8455101 
  150000    297.85537   -62174.352    -61863.92   -9838.8108    53.394183    297.62274    24.343115     164.3053          0.1   -10.999696 
  151000    295.29525   -62177.333   -61869.569   -9701.4423    53.394183    294.89299     24.58681     164.3553          0.1   -1.6910802 
  152000    300.54484   -62177.376   -61864.141   -9595.9223    53.394183    300.07594    24.836851     164.4053          0.1   -17.554105 
  153000    298.56734   -62171.206   -61860.032    -9586.155    53.394183    298.39921     24.95809     164.4553          0.1   -19.684449 
  154000    290.96756   -62171.512   -61868.258   -10345.663    53.394183     289.7942    25.027434     164.5053          0.1    -6.330152 
  155000    296.19624   -62167.824   -61859.121   -10969.925    53.394183    295.03698    24.925581     164.5553          0.1   -3.8967952 
  156000     299.9924   -62173.182   -61860.522   -10271.139    53.394183    299.81059    24.838436     164.6053          0.1   -9.9949482 
  157000       296.66   -62175.425   -61866.239   -10349.145    53.394183    296.60667    24.762093     164.6553          0.1    2.0959535 
  158000    297.84174   -62169.575   -61859.157   -9887.0564    53.394183    297.76079    24.735349     164.7053          0.1   -12.462708 
  159000    295.35846   -62170.249   -61862.419   -10904.871    53.394183    295.33362    24.751314     164.7553          0.1   -8.0039738 
  160000    296.33632   -62175.709    -61866.86   -10322.314    53.394183    296.29851    24.719192     164.8053          0.1   -13.320558 
  161000     300.5453    -62171.23   -61857.994   -10330.364    53.394183    300.50694    24.698557     164.8553          0.1   0.22460548 
  162000    298.45814   -62171.506   -61860.446   -11130.901    53.394183    298.24509     24.62528     164.9053          0.1   -12.410165 
  163000    298.91177   -62167.872   -61856.338   -10169.421    53.394183    298.90072    24.515258     164.9553          0.1   -9.2753963 
  164000    296.32221   -62168.544    -61859.71   -10643.786    53.394183    295.85951    24.533953     165.0053          0.1   -11.896979 
  165000    298.33304    -62175.38    -61864.45    -10958.79    53.394183    297.89454    24.675786     165.0553          0.1   -4.3398327 
  166000    296.93796   -62170.195   -61860.719   -11468.135    53.394183    296.80541    24.855263     165.1053          0.1   -3.7983048 
  167000    294.11105   -62164.296   -61857.766   -11313.689    53.394183       294.08    24.880908     165.1553          0.1   -23.279641 
  168000    302.78923   -62176.176   -61860.602   -10519.305    53.394183    302.70572    24.625064     165.2053          0.1   -15.510035 
  169000    292.89261   -62171.009   -61865.749   -10496.679    53.394183    292.77534    24.466962     165.2553          0.1   -13.514454 
  170000     297.0718    -62166.79   -61857.175   -9919.2282    53.394183    297.03654    24.426595     165.3053          0.1   -9.3893753 
  171000    298.14636   -62171.063   -61860.328   -9183.9721    53.394183    298.09867    24.471126     165.3553          0.1   -12.683269 
  172000    297.00252    -62162.49   -61852.947   -9927.4138    53.394183    297.00167     24.56968     165.4053          0.1   -3.8118942 
  173000    299.75595   -62162.826   -61850.413   -9610.4492    53.394183    299.73653    24.449871     165.4553          0.1   -16.940113 
  174000    295.13182   -62165.622   -61858.028   -9112.7458    53.394183    294.96206    24.369028     165.5053          0.1   -6.3957881 
  175000    291.96255   -62168.771    -61864.48   -9917.8306    53.394183    291.32856    24.308862     165.5553          0.1   -17.939537 
  176000    298.17205    -62159.78   -61849.018   -9925.6052    53.394183     297.7957    24.263001     165.6053          0.1    -5.594715 
  177000    296.29684    -62163.12   -61854.312   -10641.982    53.394183    296.28796    24.361806     165.6553          0.1   -8.5928541 
  178000    300.63733   -62164.658   -61851.327   -11536.387    53.394183      300.542    24.615606     165.7053          0.1   -6.7894295 
  179000    301.00643   -62163.294   -61849.578   -11670.058    53.394183    300.60529    24.846105     165.7553          0.1     1.248862 
  180000    298.67857   -62167.687   -61856.396    -11665.76    53.394183    298.28089    24.868715     165.8053          0.1   -17.244531 
  181000    295.57185   -62167.523   -61859.471   -11715.624    53.394183    295.46272    24.583436     165.8553          0.1   -13.462295 
  182000    297.88579   -62161.038   -61850.574   -11462.367    53.394183    297.65462    24.147861     165.9053          0.1   -13.383713 
  183000    295.48828   -62162.784   -61854.819   -10317.044    53.394183    294.73771    23.818774     165.9553          0.1   -3.5727187 
  184000     294.4265    -62159.55   -61852.691   -10801.375    53.394183    293.44254    23.732987     166.0053          0.1   -12.967251 
  185000    299.12226   -62161.939   -61850.186   -9983.6872    53.394183    298.64271    23.973809     166.0553          0.1   -11.085152 
  186000    300.39947   -62158.685   -61845.601   -10498.427    53.394183    300.36519    24.335936     166.1053          0.1  -0.19942939 
  187000    295.30424   -62163.507   -61855.734   -11049.949    53.394183    295.21136    24.599772     166.1553          0.1   -9.5529446 
  188000    295.31317   -62158.725   -61850.942    -10849.97    53.394183    294.82641    24.649386     166.2053          0.1   -13.572046 
  189000    298.07066   -62159.003   -61848.346   -10497.625    53.394183    298.05653    24.471933     166.2553          0.1   -15.824619 
  190000    295.16632   -62163.933   -61856.304   -10216.785    53.394183    295.13878    24.150405     166.3053          0.1   -5.8945711 
  191000    296.61968   -62154.163   -61845.019   -10132.074    53.394183    296.52026    23.804957     166.3553          0.1   -15.211762 
  192000    298.20859   -62154.771    -61843.97   -10461.097    53.394183    298.16871    23.731157     166.4053          0.1   -11.162226 
  193000    301.85751     -62160.4   -61845.796   -10360.802    53.394183    301.58388    23.804199     166.4553          0.1   -4.3990156 
  194000    296.38066   -62157.393   -61848.498   -11149.322    53.394183    295.62225    23.998982     166.5053          0.1   -10.891776 
  195000    301.91861   -62160.727    -61846.06   -10346.944    53.394183    301.60727    24.229021     166.5553          0.1   -13.519581 
  196000    293.10044   -62155.954   -61850.478   -11264.991    53.394183     293.0173    24.371898     166.6053          0.1     -11.8232 
  197000      296.971   -62150.962   -61841.452    -11306.23    53.394183     296.9296    24.293084     166.6553          0.1   -12.041369 
  198000    298.20484   -62150.655   -61839.859   -10891.777    53.394183    297.94663    24.091066     166.7053          0.1   -14.823433 
  199000    296.61686   -62159.577   -61850.436   -11139.222    53.394183    296.17794    23.860178     166.7553          0.1    -8.109689 
  200000    294.47561   -62151.914   -61845.005   -11307.991    53.394183    294.25993     23.63266     166.8053          0.1   -14.568184 
  201000     298.9241   -62153.165   -61841.619   -10314.367    53.394183    298.86565      23.5019     166.8553          0.1   -18.040625 
  202000    296.99909   -62146.954   -61837.414   -10969.143    53.394183    296.66944    23.603345     166.9053          0.1   -15.390281 
  203000    300.32509    -62143.47   -61830.464   -11469.851    53.394183    299.96755    23.826603     166.9553          0.1   -17.842226 
  204000    294.58403   -62148.762   -61841.739   -11963.666    53.394183    294.47929    23.969945     167.0053          0.1   -19.670332 
  205000     292.0188   -62149.812   -61845.463   -11511.013    53.394183    291.98021    24.137798     167.0553          0.1   -8.9165897 
  206000    298.17267   -62144.425   -61833.662   -11953.839    53.394183    298.12509    24.200089     167.1053          0.1   -16.558156 
  207000    295.28501   -62150.907   -61843.154   -11943.362    53.394183     295.2404    24.050851     167.1553          0.1   -7.6180295 
  208000    296.73737   -62147.849   -61838.582   -11602.406    53.394183    296.57109    23.771406     167.2053          0.1   -23.254528 
  209000    295.49016   -62147.113   -61839.146   -10804.098    53.394183    295.47276    23.454003     167.2553          0.1   -14.124568 
  210000    296.54427   -62147.622   -61838.556   -10866.174    53.394183    296.41066    23.223179     167.3053          0.1   -7.5771929 
  211000    299.86902   -62143.768   -61831.237   -10143.432    53.394183    299.55104    23.214657     167.3553          0.1   -4.8916547 
  212000    300.25937   -62138.462   -61825.524   -11104.623    53.394183    300.24762    23.430524     167.4053          0.1   -20.379437 
  213000    299.42064   -62148.722   -61836.658   -11542.057    53.394183    299.25062    23.738745     167.4553          0.1   -17.528409 
  214000    302.14552   -62141.242   -61826.339   -11240.158    53.394183    301.81028    23.906474     167.5053          0.1   -19.716985 
  215000    296.13641   -62142.441     -61833.8   -11681.221    53.394183    295.82789     23.92478     167.5553          0.1    -10.00019 
  216000    298.05116   -62137.894   -61827.258   -11660.755    53.394183     297.9673    23.788838     167.6053          0.1   -24.646629 
  217000    296.47553   -62141.062   -61832.068   -11727.028    53.394183      296.459    23.580359     167.6553          0.1   -16.735219 
  218000     298.5753   -62144.769   -61833.586   -11942.015    53.394183    298.48132    23.493815     167.7053          0.1   -14.474469 
  219000    294.39595   -62132.133   -61825.306   -11874.211    53.394183    294.18887    23.377925     167.7553          0.1   -5.9623763 
  220000    297.84527   -62134.525   -61824.104   -10379.459    53.394183    297.78293    23.277215     167.8053          0.1   -18.180208 
  221000    295.82663   -62133.937   -61825.619   -11374.442    53.394183    295.79291    23.246744     167.8553          0.1   -16.955632 
  222000    301.06862   -62134.365   -61820.584   -10915.181    53.394183    300.85833    23.170324     167.9053          0.1   -22.305046 
  223000    302.07512   -62137.406   -61822.576   -12152.192    53.394183     301.7406    23.224984     167.9553          0.1    -16.93198 
  224000    293.60137   -62137.071   -61831.073   -12255.783    53.394183    293.41678    23.451404     168.0053          0.1   -17.609368 
  225000    301.84333   -62137.969    -61823.38   -12203.651    53.394183    301.80178    23.700657     168.0553          0.1   -21.357893 
  226000    298.35758    -62130.82   -61819.864   -12060.534    53.394183    298.30084    23.782728     168.1053          0.1   -29.667266 
  227000     293.1097   -62131.204   -61825.718   -11617.095    53.394183    293.07965     23.60227     168.1553          0.1   -14.399855 
  228000     297.6678   -62133.432   -61823.195   -10949.281    53.394183    297.63599    23.197251     168.2053          0.1   -16.767876 
  229000     297.2335   -62127.459   -61817.674   -10854.757    53.394183    297.13353    22.842674     168.2553          0.1   -18.032804 
  230000     292.2602   -62123.377   -61818.777   -11601.167    53.394183    292.08436    22.763202     168.3053          0.1   -20.217883 
  231000    298.98467   -62127.128   -61815.519   -10960.715    53.394183    298.95736    22.891265     168.3553          0.1   -23.328208 
  232000    296.40514   -62131.515   -61822.594   -11125.438    53.394183     296.1003    23.201877     168.4053          0.1   -25.763953 
  233000    296.97694   -62129.388   -61819.872   -12693.331    53.394183    296.78699    23.429666     168.4553          0.1   -14.522198 
  234000     297.1162   -62126.282   -61816.621   -12069.819    53.394183    296.97681    23.421646     168.5053          0.1   -16.004019 
  235000    298.15255   -62121.521   -61810.779   -12571.762    53.394183    298.10347    23.257029     168.5553          0.1   -21.579375 
  236000    293.50738   -62123.248   -61817.347   -12331.557    53.394183    293.47083    23.093785     168.6053          0.1   -28.009533 
  237000    301.51306   -62118.935   -61804.691    -12568.38    53.394183    301.43892    22.947978     168.6553          0.1   -18.450114 
  238000    296.83929   -62124.582   -61815.209   -12320.888    53.394183     296.7104    22.923883     168.7053          0.1   -16.038739 
  239000    296.12162   -62120.287   -61811.662   -12854.153    53.394183    296.08935    22.967609     168.7553          0.1   -19.361901 
  240000     294.7158   -62121.192   -61814.032   -12158.591    53.394183    294.62726    22.926042     168.8053          0.1   -26.669971 
  241000    298.62315   -62115.691   -61804.459    -12532.06    53.394183    298.24206    22.810054     168.8553          0.1   -21.929853 
  242000    298.08523   -62119.453   -61808.781   -12196.565    53.394183    297.71992    22.774656     168.9053          0.1    -13.39108 
  243000    299.20996   -62118.955   -61807.111   -13079.112    53.394183    299.16048     22.86289     168.9553          0.1   -14.290714 
  244000     291.3038   -62114.594    -61810.99   -12289.499    53.394183    291.25755    22.945739     169.0053          0.1   -17.861287 
  245000    298.70073   -62114.505   -61803.192    -13157.15    53.394183    298.69448    22.939705     169.0553          0.1   -16.021429 
  246000    299.21578   -62116.944   -61805.094   -12077.946    53.394183    299.19933    22.925589     169.1053          0.1   -23.981234 
  247000    297.78383   -62107.656   -61797.298   -12508.211    53.394183    297.75166    22.902885     169.1553          0.1   -25.826052 
  248000    297.74366   -62114.938   -61804.622   -12649.957    53.394183    297.71202    22.820747     169.2053          0.1   -11.803568 
  249000    295.87777   -62119.007   -61810.636   -12219.726    53.394183    295.85305    22.677871     169.2553          0.1   -19.993823 
  250000    297.69303   -62109.151   -61798.888   -12402.589    53.394183    297.63907    22.562949     169.3053          0.1   -25.407263 
  251000    296.98541   -62111.037   -61801.511   -12683.749    53.394183    296.85436    22.443106     169.3553          0.1   -20.272265 
  252000    300.88778   -62108.267   -61794.674   -12419.318    53.394183     300.3951    22.388743     169.4053          0.1   -20.544295 
  253000    299.70971   -62112.308   -61799.944   -13049.056    53.394183    299.44102    22.563047     169.4553          0.1   -21.765506 
  254000    302.13411   -62105.692     -61790.8   -12847.387    53.394183     302.0604    22.682298     169.5053          0.1   -17.979112 
  255000    296.52214   -62107.158   -61798.115   -12469.112    53.394183    296.44179    22.826242     169.5553          0.1   -13.769731 
  256000    294.54771    -62103.51   -61796.525   -13267.889    53.394183    293.82123    22.921728     169.6053          0.1   -21.451976 
  257000    289.62155   -62106.121   -61804.271   -12990.246    53.394183    289.44998    22.841727     169.6553          0.1   -29.454849 
  258000    294.87919   -62101.095   -61793.764   -13842.634    53.394183    294.74649    22.676464     169.7053          0.1   -26.532897 
  259000    297.15416   -62100.699   -61790.998   -13058.485    53.394183    296.51607    22.385441     169.7553          0.1   -28.792416 
  260000    297.80406   -62102.817   -61792.438   -11847.076    53.394183    297.38153    22.053769     169.8053          0.1   -16.228326 
  261000    294.57839   -62098.421   -61791.405   -12892.252    53.394183    294.47624    21.960214     169.8553          0.1   -19.525057 
  262000    291.81674   -62097.004   -61792.865   -13102.017    53.394183    291.75754    22.136963     169.9053          0.1    -23.52809 
  263000     294.7889   -62094.514   -61787.277   -12894.642    53.394183    294.73417    22.448187     169.9553          0.1   -14.473928 
  264000    307.53978    -62090.15   -61769.625   -12979.974    53.394183    307.53873     22.70442     170.0053          0.1   -30.752141 
  265000    295.51664   -62094.736   -61786.742   -13140.278    53.394183    295.49031    22.709752     170.0553          0.1   -37.164225 
  266000    298.66606   -62088.785   -61777.508   -13574.166    53.394183    298.65693    22.480197     170.1053          0.1   -28.510837 
  267000    299.55556    -62094.44   -61782.236    -13257.86    53.394183    299.51684    22.170329     170.1553          0.1   -29.920361 
  268000    294.23955   -62091.687   -61785.024    -14419.82    53.394183    294.23158    22.049951     170.2053          0.1   -13.584179 
  269000    295.83593   -62085.531   -61777.204   -13591.684    53.394183    295.82881    22.078979     170.2553          0.1   -24.292459 
  270000    298.52716   -62083.102    -61771.97   -13291.737    53.394183    298.50018    22.102385     170.3053          0.1   -22.447134 
  271000    294.84316   -62081.697   -61774.404   -13025.022    53.394183    294.62717    22.207358     170.3553          0.1   -20.806734 
  272000    297.87607   -62086.399   -61775.945   -14089.347    53.394183    297.68206    22.245079     170.4053          0.1   -30.278012 
  273000    294.72881   -62086.459   -61779.286   -13920.533    53.394183     294.6299    22.156198     170.4553          0.1   -19.697698 
  274000     296.8837   -62084.262   -61774.842   -13852.773    53.394183    296.80023      22.1415     170.5053          0.1    -18.52595 
  275000    299.86728   -62082.017   -61769.488   -14088.146    53.394183    299.77275    22.264598     170.5553          0.1   -27.877054 
  276000    299.45082   -62088.043   -61775.948   -13474.358    53.394183    299.35075     22.22401     170.6053          0.1   -24.418259 
  277000    302.45461   -62083.856   -61768.631   -13080.355    53.394183    302.42562    22.036538     170.6553          0.1   -33.146965 
  278000    295.13107       -62084   -61776.407   -13720.258    53.394183    294.94683    21.874976     170.7053          0.1    -32.89291 
  279000    298.73473   -62074.983   -61763.634   -13638.644    53.394183    298.42745    21.737617     170.7553          0.1   -19.825733 
  280000    296.45676   -62078.574   -61769.599   -13226.704    53.394183    296.40165    21.690851     170.8053          0.1   -33.770651 
  281000     297.9404   -62076.027   -61765.506   -13557.696    53.394183    297.92491    21.715804     170.8553          0.1   -22.101427 
  282000     297.1388   -62076.796   -61767.111   -13849.735    53.394183    297.05183    21.803743     170.9053          0.1   -21.819607 
  283000    294.80039   -62074.797   -61767.549   -14534.229    53.394183      294.722    21.954552     170.9553          0.1   -30.706174 
  284000    295.10494   -62075.102   -61767.536   -14535.259    53.394183    294.96808      22.0792     171.0053          0.1   -35.645308 
  285000    295.42142    -62069.25   -61761.354   -14463.302    53.394183    295.14593    22.115838     171.0553          0.1   -34.548396 
  286000    298.99119   -62070.225    -61758.61   -15101.945    53.394183    298.97187    22.022248     171.1053          0.1   -32.049346 
  287000    298.07877   -62070.023   -61759.358   -14326.976    53.394183    298.07592    21.768991     171.1553          0.1    -27.35725 
  288000    301.81361   -62072.423   -61757.865   -13819.763    53.394183    301.72782    21.481363     171.2053          0.1   -27.759963 
  289000    299.58458   -62065.978   -61753.744   -14032.072    53.394183    299.50788    21.386013     171.2553          0.1    -30.42142 
  290000    290.92658   -62068.683   -61765.472   -13858.502    53.394183    290.88784    21.412189     171.3053          0.1   -29.894002 
  291000    300.65393    -62066.36   -61753.011   -14341.315    53.394183     300.6218    21.601302     171.3553          0.1   -17.912479 
  292000    295.04251   -62053.493   -61745.992   -14111.543    53.394183    294.97752    21.765274     171.4053          0.1   -34.256077 
  293000    293.65796   -62059.854   -61753.796   -14950.073    53.394183    293.65134    21.829026     171.4553          0.1   -27.689527 
  294000    302.53903   -62050.959   -61735.645   -14452.195    53.394183    302.49518    21.750974     171.5053          0.1   -29.910079 
  295000    291.22745   -62052.813   -61749.289   -15203.637    53.394183    291.13697    21.627237     171.5553          0.1   -28.794847 
  296000    294.46143   -62052.548   -61745.653   -14521.774    53.394183    294.45333    21.414805     171.6053          0.1   -27.057712 
  297000    297.86435   -62060.942     -61750.5   -14560.841    53.394183    297.85593    21.249186     171.6553          0.1   -29.178721 
  298000    296.50609   -62058.846    -61749.82   -15188.548    53.394183    296.48724     21.27891     171.7053          0.1   -30.103489 
  299000    298.33196    -62049.88   -61738.951   -14791.506    53.394183    298.32245    21.384073     171.7553          0.1    -27.34621 
  300000    301.27722   -62053.555   -61739.556   -14824.012    53.394183    301.22928    21.511981     171.8053          0.1   -24.557804 
  301000    297.54515    -62046.37   -61736.262   -14085.375    53.394183    297.51085    21.562539     171.8553          0.1   -36.954253 
  302000    294.75179   -62047.441   -61740.243   -15138.772    53.394183    294.70075    21.485116     171.9053          0.1   -30.481543 
  303000    301.30147   -62050.345   -61736.322   -15485.036    53.394183    301.14432    21.344604     171.9553          0.1   -26.882583 
  304000    294.94207   -62042.295   -61734.899   -15986.743    53.394183    294.57432    21.364743     172.0053          0.1   -37.155301 
  305000    292.42456   -62044.527   -61739.755   -15888.119    53.394183    292.16376    21.410604     172.0553          0.1    -29.03844 
  306000    299.49177   -62045.359   -61733.221   -13872.294    53.394183    299.44361    21.338909     172.1053          0.1   -32.519584 
  307000    295.88004   -62043.127   -61734.753   -14579.497    53.394183    295.71264    21.144595     172.1553          0.1   -29.401101 
  308000    297.96486   -62039.551   -61729.005   -14630.888    53.394183    297.87758    21.034101     172.2053          0.1   -38.882514 
  309000    294.10284    -62035.66   -61729.139   -15669.847    53.394183    294.06118    21.049613     172.2553          0.1   -30.461033 
  310000    294.08582   -62039.225   -61732.721   -15725.982    53.394183     294.0427    21.037153     172.3053          0.1   -38.530314 
  311000    297.41638    -62032.09   -61722.115   -15150.418    53.394183    297.37606    21.078913     172.3553          0.1   -23.818028 
  312000    295.83978   -62029.867   -61721.535   -16191.557    53.394183    295.80643    21.165766     172.4053          0.1   -35.387813 
  313000    294.61416   -62034.773   -61727.719   -16010.216    53.394183    294.56816    21.192852     172.4553          0.1   -33.005641 
  314000    297.70745   -62031.235   -61720.957   -15347.796    53.394183    297.65335    21.178188     172.5053          0.1   -31.572796 
  315000    295.68997   -62023.077   -61714.901   -15734.135    53.394183    295.59479    21.156682     172.5553          0.1   -26.280713 
  316000    299.15071   -62025.298   -61713.515   -15136.587    53.394183    299.08992     21.03781     172.6053          0.1   -31.776278 
  317000    297.13172   -62028.599   -61718.921    -15434.19    53.394183    296.95813    20.925084     172.6553          0.1   -32.347942 
  318000    297.00675   -62029.582   -61720.034   -16039.515    53.394183    296.93214    20.862018     172.7053          0.1   -39.003591 
  319000    296.55079   -62019.238   -61710.165   -16742.879    53.394183      296.473    20.867746     172.7553          0.1   -40.125708 
  320000    300.22264   -62023.505   -61710.606   -16299.821    53.394183     300.0682    20.885644     172.8053          0.1   -37.798732 
  321000    298.23713   -62016.759   -61705.928   -14980.487    53.394183    297.81953    20.944975     172.8553          0.1    -39.88409 
  322000    298.04811   -62021.307   -61710.674   -16508.174    53.394183    297.68465    20.925734     172.9053          0.1   -28.807305 
  323000    305.03929   -62010.968   -61693.049   -15196.413    53.394183    304.91633    20.759462     172.9553          0.1   -28.809581 
  324000    294.26896    -62013.72   -61707.025   -15626.636    53.394183    294.26595    20.676496     173.0053          0.1    -36.50022 
  325000    295.93804   -62008.148   -61699.714    -16096.19    53.394183    295.62684    20.687413     173.0553          0.1   -23.353367 
  326000    299.57174   -62011.995   -61699.774   -15559.503    53.394183    299.22562    20.657298     173.1053          0.1   -35.582235 
  327000    297.85528   -62011.859   -61701.427   -16588.533    53.394183      297.821     20.66407     173.1553          0.1   -36.652085 
  328000    295.95073   -62005.348   -61696.901   -16295.847    53.394183    295.89558    20.785579     173.2053          0.1   -33.785076 
  329000    301.47984    -62001.65    -61687.44   -16352.197    53.394183    301.23324     20.87411     173.2553          0.1   -35.314153 
  330000    292.96168   -61999.953   -61694.621   -16854.426    53.394183    292.71095    20.773477     173.3053          0.1   -38.891092 
  331000    299.61304   -62004.197   -61691.932   -16509.608    53.394183     299.5704    20.610451     173.3553          0.1   -43.364797 
  332000    300.37442    -61994.61   -61681.553   -16285.271    53.394183    300.34144    20.540427     173.4053          0.1    -35.01802 
  333000    297.62286   -61996.307   -61686.117   -16834.183    53.394183     297.5359    20.557849     173.4553          0.1   -42.414977 
  334000    296.51764   -62002.575   -61693.537   -16082.544    53.394183     296.4711    20.572041     173.5053          0.1    -40.25497 
  335000    293.62564   -61989.002   -61682.978   -16061.717    53.394183    293.52579    20.646007     173.5553          0.1   -37.453604 
  336000    296.23775   -61990.486   -61681.739   -16709.841    53.394183    296.02185      20.5645     173.6053          0.1   -38.034811 
  337000    300.60095   -61991.433   -61678.139   -16434.111    53.394183    300.58354    20.377228     173.6553          0.1   -38.833806 
  338000    300.30449   -61981.341   -61668.356   -15759.542    53.394183    300.08932    20.299831     173.7053          0.1   -36.498414 
  339000    301.54682   -61986.125   -61671.846   -16550.418    53.394183    301.00188    20.337798     173.7553          0.1    -37.81434 
  340000     295.0822   -61983.417   -61675.876   -16312.376    53.394183     294.6941    20.367768     173.8053          0.1   -36.609734 
  341000    299.52707   -61978.143   -61665.969   -16245.383    53.394183    299.46602    20.408214     173.8553          0.1   -34.913796 
  342000    301.72248   -61975.448   -61660.986   -16790.071    53.394183    301.45313    20.462509     173.9053          0.1   -40.622243 
  343000    295.34199   -61970.794   -61662.981   -17264.367    53.394183    295.07379     20.44188     173.9553          0.1   -37.634662 
  344000    300.44121   -61966.659   -61653.532   -16619.162    53.394183    300.40602    20.365089     174.0053          0.1   -44.619754 
  345000    294.78231   -61960.366   -61653.136   -16593.034    53.394183    294.74419    20.234605     174.0553          0.1   -45.210028 
  346000    294.20351   -61964.224   -61657.597   -17394.063    53.394183    293.86262    20.029575     174.1053          0.1   -32.031355 
  347000    298.08433   -61967.858   -61657.187   -16464.047    53.394183    297.84449    19.958093     174.1553          0.1   -36.396205 
  348000    296.23269   -61966.882   -61658.141   -16171.048    53.394183    296.15541    19.950971     174.2053          0.1   -41.123464 
  349000    298.35165   -61962.883   -61651.934   -16616.583    53.394183    298.30131    20.005642     174.2553          0.1   -39.133106 
  350000    297.08828   -61951.087   -61641.454   -16416.163    53.394183    297.06897    20.139545     174.3053          0.1   -44.113453 
  351000    296.97646   -61954.491   -61644.975   -16990.853    53.394183    296.91258    20.199329     174.3553          0.1   -38.569781 
  352000    297.39813   -61949.132   -61639.176    -17190.61    53.394183    297.20586    20.122533     174.4053          0.1   -37.989758 
  353000    293.79062   -61950.116    -61643.92   -16964.478    53.394183    293.76657    19.989503     174.4553          0.1   -40.615614 
  354000    293.68979   -61946.539   -61640.448   -17346.761    53.394183    293.65791    19.880372     174.5053          0.1   -40.987859 
  355000    292.05572   -61943.578   -61639.191   -16857.762    53.394183    291.90805     19.83524     174.5553          0.1   -44.250907 
  356000     300.1711   -61939.781   -61626.936   -16567.405    53.394183     300.1453     19.85212     174.6053          0.1    -37.73409 
  357000     294.8009   -61943.898    -61636.65   -17038.941    53.394183    294.62929    19.823305     174.6553          0.1   -43.362272 
  358000    300.72479   -61945.557   -61632.134   -18076.342    53.394183    300.46654    19.887262     174.7053          0.1   -46.730442 
  359000    297.59996   -61938.751   -61628.585   -17110.466    53.394183     297.5648    19.944925     174.7553          0.1    -37.43464 
  360000    298.65401    -61941.23   -61629.966   -17716.554    53.394183    298.55758     19.97674     174.8053          0.1   -51.782279 
  361000    291.09084   -61934.181   -61630.799   -18020.777    53.394183    291.02262      19.9982     174.8553          0.1   -43.497368 
  362000    295.04603   -61934.785   -61627.281   -17676.904    53.394183    294.94405    20.061732     174.9053          0.1    -46.44399 
  363000    296.77906   -61937.852   -61628.542     -16854.3    53.394183    296.45753    20.021324     174.9553          0.1   -42.405382 
  364000    293.84244    -61933.19    -61626.94   -17336.428    53.394183    293.69965    19.835761     175.0053          0.1   -43.907935 
  365000    300.36146   -61925.882   -61612.838   -16923.167    53.394183     300.3277    19.580438     175.0553          0.1   -40.943628 
  366000    297.56209   -61908.724   -61598.598   -16427.005    53.394183    297.28807    19.381104     175.1053          0.1   -42.358845 
  367000     293.9031   -61906.778   -61600.465   -15955.641    53.394183    293.81023    19.257496     175.1553          0.1     -47.6004 
  368000     299.3513   -61902.177   -61590.186   -17974.835    53.394183    299.26178    19.310121     175.2053          0.1   -55.855609 
  369000     293.6728    -61905.32   -61599.247   -17694.258    53.394183    293.35584     19.30008     175.2553          0.1   -40.932778 
  370000     300.5219   -61901.445   -61588.234   -16980.314    53.394183    300.35573    19.292502     175.3053          0.1   -50.706936 
  371000    295.32647   -61900.521   -61592.724   -17046.007    53.394183    295.31138    19.274548     175.3553          0.1   -40.108186 
  372000    298.36189   -61893.403   -61582.443   -17577.825    53.394183    298.29666    19.342083     175.4053          0.1   -44.870019 
  373000    299.88966   -61896.524   -61583.971   -17060.715    53.394183    299.86724    19.417081     175.4553          0.1   -49.161307 
  374000    295.43925   -61897.898   -61589.984   -17777.576    53.394183    295.34636     19.51899     175.5053          0.1   -43.442956 
  375000    294.47493   -61893.599    -61586.69   -17649.842    53.394183     294.4052    19.560167     175.5553          0.1   -51.421445 
  376000    294.60237   -61892.003   -61584.961   -17563.035    53.394183     294.5691    19.462962     175.6053          0.1   -39.648214 
  377000    293.87382    -61889.89   -61583.608   -17355.176    53.394183    293.85473    19.336463     175.6553          0.1   -46.764556 
  378000    297.87169   -61886.031   -61575.582   -17557.382    53.394183    297.85101    19.235317     175.7053          0.1   -46.325644 
  379000    291.60429   -61876.819   -61572.902   -16980.734    53.394183    291.54146    19.093121     175.7553          0.1   -45.545235 
  380000    296.88872   -61876.594   -61567.169   -17178.381    53.394183    296.52522    18.979851     175.8053          0.1   -46.424767 
  381000    298.87837   -61879.419    -61567.92    -17144.87    53.394183    298.65174    18.953544     175.8553          0.1   -44.595545 
  382000    299.77831   -61874.664   -61562.228   -19103.173    53.394183    299.73819    19.062696     175.9053          0.1    -41.52843 
  383000     298.3402   -61867.426   -61556.489   -18250.346    53.394183     298.2331    19.200647     175.9553          0.1   -47.906921 
  384000    297.18163   -61868.226   -61558.496   -17558.481    53.394183    297.05181     19.28871     176.0053          0.1   -52.321373 
  385000    295.72419   -61871.471    -61563.26   -17246.735    53.394183    295.72289    19.110172     176.0553          0.1   -54.194892 
  386000    298.52629   -61864.595   -61553.463   -18240.342    53.394183    298.31071    18.882749     176.1053          0.1   -53.751182 
  387000    293.86919    -61857.79   -61551.512   -18409.106    53.394183    293.72355    18.793828     176.1553          0.1   -50.630553 
  388000    296.20728   -61858.397   -61549.683   -17228.926    53.394183    296.16458    18.804345     176.2053          0.1   -44.787496 
  389000    297.22892   -61857.864   -61548.085   -17688.549    53.394183    297.20355    18.908285     176.2553          0.1    -50.20015 
  390000    296.31986   -61852.494   -61543.662   -17885.524    53.394183    296.27879    19.006806     176.3053          0.1   -52.201498 
  391000     296.1045   -61852.745   -61544.137    -17992.51    53.394183    295.99349    19.024188     176.3553          0.1   -54.305259 
  392000    296.11683   -61851.628   -61543.008   -17733.611    53.394183    295.89241    18.926045     176.4053          0.1   -56.997712 
  393000    297.65365   -61843.994   -61533.772   -18042.602    53.394183    297.61731    18.773471     176.4553          0.1   -41.636967 
  394000    296.41846   -61844.492   -61535.558   -17952.094    53.394183    296.24385    18.664102     176.5053          0.1   -50.738643 
  395000    298.80662    -61840.17   -61528.746   -17829.648    53.394183    298.61053    18.659861     176.5553          0.1   -53.564477 
  396000     298.9174   -61838.647   -61527.108   -18802.733    53.394183    298.88443    18.817331     176.6053          0.1   -54.447905 
  397000    296.37973   -61836.331   -61527.437   -18310.777    53.394183    296.22554    18.904941     176.6553          0.1   -54.489821 
  398000    300.45345   -61833.456   -61520.316   -18327.812    53.394183    300.16238     18.89789     176.7053          0.1   -49.228634 
  399000    299.94264    -61832.12   -61519.512   -18100.396    53.394183     299.7024    18.851928     176.7553          0.1   -53.443706 
  400000    293.38016   -61827.751   -61521.983   -18487.074    53.394183     293.3513    18.678377     176.8053          0.1   -54.226237 
  401000    295.03492   -61822.712    -61515.22   -19052.358    53.394183    294.98113    18.586499     176.8553          0.1   -56.884242 
  402000    298.48727   -61830.665   -61519.574   -17647.781    53.394183    298.42596    18.582126     176.9053          0.1   -48.956372 
  403000    298.56061   -61827.101   -61515.934   -17728.115    53.394183     298.5233    18.568119     176.9553          0.1   -51.602637 
  404000    295.72513     -61814.5   -61506.288     -18186.9    53.394183     295.7063    18.539442     177.0053          0.1   -56.780805 
  405000    299.83989   -61818.241    -61505.74   -19042.414    53.394183    299.80958       18.622     177.0553          0.1     -54.6928 
  406000    297.48446   -61811.244   -61501.198   -18019.336    53.394183    297.46418    18.616261     177.1053          0.1     -53.3299 
  407000    292.34031   -61815.282   -61510.598   -18829.066    53.394183    292.21906    18.519311     177.1553          0.1   -52.629595 
  408000    298.87062   -61809.526   -61498.035   -18537.536    53.394183    298.69743    18.507997     177.2053          0.1   -60.014933 
  409000    296.04617   -61804.473   -61495.926   -18802.363    53.394183    295.99739    18.529519     177.2553          0.1   -59.407588 
  410000    295.65029   -61802.723   -61494.589   -19863.599    53.394183    295.58617    18.627865     177.3053          0.1    -49.01899 
  411000    295.36588    -61802.23   -61494.393   -19115.607    53.394183    295.27146    18.661188     177.3553          0.1    -54.19432 
  412000    292.56219   -61797.405    -61492.49   -18239.733    53.394183    292.48947    18.486519     177.4053          0.1   -62.238201 
  413000     298.3321   -61792.886   -61481.957   -19291.967    53.394183     298.2608    18.249132     177.4553          0.1   -58.315596 
  414000    302.72418   -61792.333   -61476.826    -19051.26    53.394183    302.34493    18.160625     177.5053          0.1   -63.617438 
  415000    293.04719   -61791.793   -61486.372   -19238.548    53.394183    292.90052    18.195915     177.5553          0.1   -60.869635 
  416000    290.76687    -61783.54   -61480.495   -18219.304    53.394183    289.91255    18.364813     177.6053          0.1   -56.935572 
  417000    300.27319   -61787.838   -61474.886   -17940.087    53.394183    294.63352    18.670685     177.6553          0.1   -59.452975 
  418000    303.11921   -61909.505   -61593.587   -13786.182    53.394183    265.08958    19.021246     177.7053          0.1   -48.117182 
  419000    299.04546   -62049.478   -61737.805   -11656.332    53.394183    226.59011    19.792065     177.7553          0.1   -13.930749 
  420000    296.81962   -62106.542    -61797.19    -8777.775    53.394183    224.48965    21.112817     177.8053          0.1    3.4513952 
  421000    298.20452   -62115.861   -61805.065   -6493.3134    53.394183    232.61127    22.860504     177.8553          0.1   -5.7528789 
  422000     297.7061   -62102.046   -61791.769   -8327.4154    53.394183    243.49999    24.659222     177.9053          0.1    5.7935862 
  423000     299.9887   -62106.231   -61793.576   -8971.0126    53.394183    250.82757    25.739273     177.9553          0.1  -0.83730039 
  424000    294.09739   -62132.336    -61825.82   -8920.2872    53.394183    257.62767    25.903189     178.0053          0.1    7.9978359 
  425000    298.10581   -62095.999   -61785.306   -7647.4783    53.394183    257.69967     25.15419     178.0553          0.1    7.7351265 
  426000    296.59197   -62056.612   -61747.497   -7042.2432    53.394183    261.28016    24.002995     178.1053          0.1     3.725743 
  427000    300.01621   -62048.491   -61735.807   -7661.3113    53.394183    268.29575    23.212223     178.1553          0.1    6.5034607 
  428000    298.98393     -62026.4   -61714.792   -8077.6299    53.394183    271.71527    22.982271     178.2053          0.1    6.4676489 
  429000    298.95821   -62022.932   -61711.351   -7482.8682    53.394183    274.84425    23.355587     178.2553          0.1    13.025558 
  430000    297.34593   -62011.971    -61702.07   -7247.4256    53.394183    278.63489    24.160538     178.3053          0.1    6.0464335 
  431000    295.61733   -62005.039   -61696.939   -7687.0442    53.394183    282.30944    24.621135     178.3553          0.1    12.124601 
  432000    298.91274   -61985.253   -61673.719   -6238.7211    53.394183    290.48005    24.586178     178.4053          0.1    5.2452944 
  433000    300.29197   -61975.254   -61662.283   -6411.4859    53.394183    295.93349    24.343138     178.4553          0.1    5.2219816 
  434000    293.71555   -61989.621   -61683.503   -5161.3002    53.394183    291.23881    23.790525     178.5053          0.1    9.6862189 
  435000    298.38704   -62001.845   -61690.858   -6385.6775    53.394183    295.13026    23.526013     178.5553          0.1   -2.3504529 
  436000    304.81836   -62029.413   -61711.724   -5750.0872    53.394183     300.4691    23.815036     178.6053          0.1   -9.7839446 
  437000    298.64765     -62036.9   -61725.642   -6557.4671    53.394183    291.74409    24.286527     178.6553          0.1   -2.2672444 
  438000    293.18735   -62044.136   -61738.569   -5845.3695    53.394183    284.04682    24.478792     178.7053          0.1    3.8610379 
  439000    299.12698   -62021.305   -61709.547   -7618.6789    53.394183    291.45789    24.775902     178.7553          0.1   -24.491645 
  440000    298.40943   -62023.976   -61712.967   -5742.6611    53.394183    290.43313    25.173945     178.8053          0.1    5.9938866 
  441000    296.72678   -62050.106    -61740.85    -5890.809    53.394183    289.00943    25.057905     178.8553          0.1   -3.6556751 
  442000    298.44477   -62037.705   -61726.659   -5418.4148    53.394183      291.566    25.042152     178.9053          0.1   -7.8583869 
  443000    298.44693    -62022.71   -61711.662   -5695.4397    53.394183    290.24956    24.918994     178.9553          0.1    5.8077894 
  444000    294.99699   -62022.924    -61715.47   -5365.1071    53.394183     288.0327    24.768074     179.0053          0.1   -1.0953875 
  445000    291.28519   -62023.174   -61719.589   -5035.3986    53.394183    286.25784    24.207946     179.0553          0.1   -3.6634493 
  446000    299.13518   -62006.996    -61695.23   -4558.8002    53.394183    295.97683    23.934468     179.1053          0.1   0.54236461 
  447000     298.0465   -62007.926   -61697.295   -4616.7336    53.394183    295.87159    23.856252     179.1553          0.1    -3.004639 
  448000    301.91921   -62016.932   -61702.264    -5242.334    53.394183    299.70842     23.70037     179.2053          0.1    -3.630517 
  449000     302.5174   -62029.908   -61714.617   -4912.6041    53.394183    301.17938    23.665862     179.2553          0.1  -0.88901407 
  450000    297.30478   -62047.172   -61737.314   -6475.7339    53.394183    296.59123    23.991346     179.3053          0.1    5.8849434 
  451000    299.89928   -62062.489   -61749.926   -6196.1337    53.394183    299.35017    24.425703     179.3553          0.1    2.8699623 
  452000    299.09578   -62062.165    -61750.44   -6263.8809    53.394183    297.85696    24.790716     179.4053          0.1    3.8898059 
  453000    297.14447   -62059.507   -61749.816   -6771.5476    53.394183    296.27717    24.876801     179.4553          0.1   -8.1401568 
  454000    297.38094   -62051.091   -61741.153   -6324.6446    53.394183    294.81537    24.795048     179.5053          0.1    12.915967 
  455000    295.62019   -62062.553    -61754.45   -5873.4378    53.394183    291.55051    24.649653     179.5553          0.1   -8.3955832 
  456000    296.34523   -62066.989    -61758.13   -7516.4226    53.394183    293.41105    24.439069     179.6053          0.1    5.5938243 
  457000    305.45816   -62062.558   -61744.202   -5348.5075    53.394183    300.76065    24.182222     179.6553          0.1     13.20986 
  458000    296.67349   -62063.508   -61754.308   -6264.6655    53.394183    291.06729    24.065331     179.7053          0.1    3.6688053 
  459000    291.59919   -62056.651   -61752.739   -6549.8063    53.394183    283.00063    23.929135     179.7553          0.1   -2.9763116 
  460000    296.60714   -62063.975   -61754.844   -6236.9747    53.394183    286.65105    23.915213     179.8053          0.1    5.1554601 
  461000    296.26638   -62051.455   -61742.679   -7059.7759    53.394183    289.29775     23.96895     179.8553          0.1    6.3169531 
  462000    300.51687   -62054.642   -61741.436    -6332.108    53.394183    296.11293    24.144857     179.9053          0.1   0.34751177 
  463000     297.0202   -62045.843   -61736.282   -5778.5157    53.394183     294.2955    24.108789     179.9553          0.1   -17.727744 
  464000    302.24459   -62039.964   -61724.957   -6061.1944    53.394183    300.82346    24.133945     180.0053          0.1  -0.57963749 
  465000    302.64542   -62035.799   -61720.374   -5487.8091    53.394183    301.04374    24.057356     180.0553          0.1   -2.6338193 
  466000    295.38412   -62038.364   -61730.508   -6346.6479    53.394183    293.01699    24.161116     180.1053          0.1    4.6037397 
  467000    299.25527   -62031.638   -61719.747   -4871.9392    53.394183    295.86703    24.103275     180.1553          0.1   -3.4676208 
  468000    299.30579   -62035.767   -61723.823   -7102.1738    53.394183     295.1868    24.019272     180.2053          0.1   -1.4457504 
  469000    298.90067   -62050.252    -61738.73   -5629.2092    53.394183    293.71641    23.988579     180.2553          0.1    2.3372007 
  470000    294.55251    -62052.96    -61745.97   -6827.3686    53.394183    288.77002    24.283822     180.3053          0.1    5.0667427 
  471000    300.09348   -62059.226   -61746.461   -6785.8046    53.394183    292.94607     24.69201     180.3553          0.1   -2.3479649 
  472000    298.96582   -62068.216   -61756.627   -6948.7134    53.394183    290.38239    25.030322     180.4053          0.1   -2.8408957 
  473000    297.12043   -62082.916    -61773.25   -6419.5021    53.394183    287.58991    25.214824     180.4553          0.1    6.5316805 
  474000    294.81804   -62071.858   -61764.591    -8255.086    53.394183    284.47556    25.107086     180.5053          0.1   -8.5299726 
  475000    297.37926    -62063.34   -61753.404   -8437.3978    53.394183    285.45107    24.596299     180.5553          0.1   -10.233313 
  476000    292.94614   -62066.446    -61761.13   -7359.6269    53.394183    280.21376    23.994091     180.6053          0.1     1.157491 
  477000    295.16232   -62065.873   -61758.247   -6539.5438    53.394183     283.1271    23.920504     180.6553          0.1    5.4442178 
  478000    301.78609   -62069.358   -61754.829   -7456.8514    53.394183    290.71906    24.484776     180.7053          0.1     13.96116 
  479000    292.97151   -62068.931   -61763.589   -6592.3899    53.394183    283.71971    25.219334     180.7553          0.1    11.079503 
  480000    299.62377   -62067.408   -61755.132   -8446.0526    53.394183    290.44513    25.992666     180.8053          0.1    9.0672144 
  481000    300.44004   -62073.814   -61760.688   -7673.8577    53.394183    292.09545    26.462909     180.8553          0.1   -10.194894 
  482000    296.70975   -62066.725   -61757.486    -7338.429    53.394183    289.10538    26.698282     180.9053          0.1   -1.1070324 
  483000    296.61578   -62062.014   -61752.874   -6645.6582    53.394183    288.86615    26.709418     180.9553          0.1  -0.05555088 
  484000    299.04012   -62054.144   -61742.477   -7647.8638    53.394183    291.22646    26.659898     181.0053          0.1    7.8688354 
  485000    296.33884   -62055.678   -61746.827   -6210.0226    53.394183    288.88547     26.32156     181.0553          0.1    6.5454228 
  486000    296.68988   -62047.529   -61738.312   -6075.6575    53.394183    288.99713     25.97269     181.1053          0.1    1.8900025 
  487000    292.30566    -62047.69   -61743.042   -4801.2388    53.394183    285.32209    25.609037     181.1553          0.1    12.226799 
  488000    296.79016   -62047.564   -61738.243   -5355.0878    53.394183    289.99233    25.590681     181.2053          0.1   -5.5268536 
  489000    296.17213   -62041.979   -61733.301   -6646.6186    53.394183    290.39401      25.9188     181.2553          0.1   -1.1510912 
  490000    297.25147   -62053.341   -61743.538   -5534.5239    53.394183    293.00972    26.412282     181.3053          0.1    0.1457003 
  491000    296.34211   -62056.202   -61747.347   -6918.8157    53.394183    292.84966    26.972364     181.3553          0.1   -1.4873391 
  492000    295.35957    -62049.79   -61741.959    -6934.842    53.394183    292.70768    27.286701     181.4053          0.1    4.3072466 
  493000    293.29081   -62056.904   -61751.229   -6384.5014    53.394183    291.36282    27.238072     181.4553          0.1    7.2707309 
  494000    293.26564   -62058.266   -61752.617   -5922.1002    53.394183    291.84796    27.002564     181.5053          0.1     1.565078 
  495000    293.09058   -62058.272   -61752.806   -7074.5149    53.394183    292.40576    26.718821     181.5553          0.1   -4.4290185 
  496000    299.64381   -62059.172   -61746.876    -5449.244    53.394183    299.31918    26.327635     181.6053          0.1  -0.80883351 
  497000    297.89871   -62067.929   -61757.452    -6604.352    53.394183    297.83486    26.040228     181.6553          0.1   -5.2319528 
  498000    300.75328   -62057.112    -61743.66   -6314.3867    53.394183    300.65784    25.904712     181.7053          0.1   -8.4121635 
  499000     294.0425   -62057.093   -61750.635   -5043.9094    53.394183    293.92819    25.802057     181.7553          0.1   -5.1236275 
  500000    292.01623   -62055.593   -61751.247   -5942.3294    53.394183     291.7733    25.926255     181.8053          0.1   -2.7588277 
  501000    295.40218   -62053.467   -61745.591   -6114.3514    53.394183    294.91591    25.953629     181.8553          0.1    1.8531096 
  502000     299.6864   -62049.558   -61737.217    -4747.433    53.394183    298.64731    25.716144     181.9053          0.1   -5.6263832 
  503000    299.93356   -62051.121   -61738.523   -5087.5314    53.394183    298.46725    25.575144     181.9553          0.1   -7.5826497 
  504000    297.31486    -62040.81   -61730.941   -5107.8455    53.394183    294.90293    25.507985     182.0053          0.1    -1.020667 
  505000    297.53551   -62046.763   -61736.664   -4765.2456    53.394183    295.50158    25.663536     182.0553          0.1    11.409767 
  506000    295.35243   -62043.752   -61735.928   -4440.6534    53.394183    292.26502    25.945355     182.1053          0.1    5.7466578 
  507000    297.33889   -62042.688   -61732.794   -4813.0935    53.394183    294.59605    26.163474     182.1553          0.1   -1.6859293 
  508000    297.06024   -62034.118   -61724.515   -4265.8026    53.394183    294.39825    26.000317     182.2053          0.1    8.2101686 
  509000    298.00618   -62048.829    -61738.24   -4725.8669    53.394183    295.57419    25.713578     182.2553          0.1    7.3701633 
  510000     296.7925   -62040.117   -61730.793   -4281.5781    53.394183    294.04262     25.42118     182.3053          0.1  0.052970667 
  511000    296.33079   -62050.284   -61741.441   -5121.3176    53.394183    293.22071     25.54339     182.3553          0.1    2.1743564 
  512000    294.25192   -62054.482   -61747.806   -5281.3771    53.394183    290.81287    25.805031     182.4053          0.1    -7.568242 
  513000    295.95252   -62049.119   -61740.671   -5330.9137    53.394183    292.41774    25.942164     182.4553          0.1      6.68677 
  514000    297.99571   -62053.315   -61742.736   -5936.0131    53.394183    294.42994    25.839979     182.5053          0.1   -3.2946636 
  515000    300.55433   -62063.722   -61750.477   -5934.6789    53.394183    297.34678    25.530715     182.5553          0.1    3.6194131 
  516000    294.54299   -62059.678   -61752.699   -5444.8162    53.394183    291.37723    25.294032     182.6053          0.1  -0.84194713 
  517000    303.65803   -62060.061   -61743.581   -5619.9891    53.394183     300.7024     25.23096     182.6553          0.1   -7.1621341 
  518000    299.27426   -62060.975   -61749.064   -5656.3705    53.394183    296.40481    25.441798     182.7053          0.1    4.8955765 
  519000    289.97298   -62062.704   -61760.487   -6378.8023    53.394183    287.29379    25.819126     182.7553          0.1   -3.7824538 
  520000    299.91167   -62061.786   -61749.211   -6640.2519    53.394183    297.07716    26.120605     182.8053          0.1    10.686594 
  521000    297.75014   -62062.936   -61752.613   -6952.1379    53.394183    295.14622    26.120667     182.8553          0.1    6.9126648 
  522000    297.58831   -62070.134    -61759.98   -6244.3779    53.394183    295.06144    25.994197     182.9053          0.1    -1.589483 
  523000    296.75273   -62060.669   -61751.386   -7293.8553    53.394183    293.85625     25.98196     182.9553          0.1    7.6757962 
  524000    300.05119   -62072.263   -61759.543   -7107.1359    53.394183    296.78058     26.05283     183.0053          0.1    3.7615964 
  525000    299.85029   -62060.848   -61748.336   -7077.5653    53.394183    295.89735    26.223487     183.0553          0.1    1.5694013 
  526000     304.5657   -62063.051   -61745.625   -7905.9983    53.394183    300.30203    26.316709     183.1053          0.1    3.5128161 
  527000    301.97588   -62061.844   -61747.117   -7228.1788    53.394183    297.98638    26.157234     183.1553          0.1    -1.122732 
  528000    298.01437   -62062.101   -61751.503    -6169.548    53.394183    294.22438    25.831302     183.2053          0.1   -3.2773095 
  529000    297.07195   -62051.987   -61742.372   -5436.3272    53.394183    293.29054    25.592922     183.2553          0.1    4.0693609 
  530000    292.61015   -62053.116    -61748.15   -5968.8759    53.394183    289.23123    25.423562     183.3053          0.1 -0.046436907 
  531000    296.70914   -62053.209   -61743.971   -5942.0307    53.394183    293.29303    25.377952     183.3553          0.1   -2.2173581 
  532000    294.00659   -62050.562   -61744.141   -6271.6632    53.394183     290.6044    25.376903     183.4053          0.1   -12.352647 
  533000    295.74317   -62059.088   -61750.857   -6986.1727    53.394183    292.18881    25.348828     183.4553          0.1   -9.5358669 
  534000    294.87918   -62058.545   -61751.214   -6958.6734    53.394183    291.17724    25.316141     183.5053          0.1   -3.5890806 
  535000    297.55489    -62067.51   -61757.391   -6385.6244    53.394183    293.89433    25.345644     183.5553          0.1   -1.6510943 
  536000    294.80721   -62058.609   -61751.354   -6863.1954    53.394183    291.14544    25.591816     183.6053          0.1   0.79130327 
  537000     298.6122   -62067.628   -61756.407   -7353.7495    53.394183    295.03126    25.747929     183.6553          0.1   -3.1896719 
  538000    298.45427   -62069.549   -61758.493   -7056.5365    53.394183    295.31461    25.655044     183.7053          0.1    2.0987281 
  539000    300.98845   -62066.057    -61752.36   -6648.9774    53.394183    298.03337    25.433338     183.7553          0.1    1.2707891 
  540000     298.3214   -62066.502   -61755.584   -6213.2861    53.394183    295.83337    25.122453     183.8053          0.1    11.022546 
  541000    298.21459   -62057.961   -61747.155    -7295.612    53.394183    295.68842    24.718021     183.8553          0.1    2.8266143 
  542000    294.56057   -62048.213   -61741.214   -6535.7437    53.394183    292.13037    24.275344     183.9053          0.1    4.1279381 
  543000    297.23142   -62053.597   -61743.815   -5419.9332    53.394183    295.31736    24.061466     183.9553          0.1   -1.0795549 
  544000     296.3675   -62049.128   -61740.246    -5316.428    53.394183    295.11737    24.058853     184.0053          0.1   -2.1606046 
  545000    298.14555   -62054.386   -61743.652    -6408.368    53.394183    296.95858    24.354111     184.0553          0.1   -3.5385578 
  546000    299.85842   -62050.221   -61737.701   -5637.9574    53.394183    299.37793    24.680291     184.1053          0.1    10.079466 
  547000    298.74996   -62042.973   -61731.608   -5895.9754    53.394183    298.54049     25.02853     184.1553          0.1    2.9184876 
  548000    298.84012    -62051.43   -61739.972   -6085.9983    53.394183    298.78462    25.072763     184.2053          0.1   0.25029356 
  549000    299.29313   -62045.915   -61733.984   -5528.9888    53.394183    299.09646    24.755882     184.2553          0.1    2.0191789 
  550000    298.88407   -62051.768   -61740.263   -5336.9311    53.394183     298.1339    24.655123     184.3053          0.1   -1.6481738 
  551000    295.28667   -62054.386   -61746.631   -5879.4146    53.394183    294.25751    24.764208     184.3553          0.1   -4.2871019 
  552000     295.5658    -62055.68   -61747.634   -6709.6951    53.394183    294.48915    24.870583     184.4053          0.1   0.89391859 
  553000    295.43899   -62054.835   -61746.922   -6567.7303    53.394183    294.29388    24.913729     184.4553          0.1   0.99961177 
  554000    296.49155   -62053.911     -61744.9   -6750.9643    53.394183    294.91234    24.855164     184.5053          0.1    6.5398052 
  555000    298.12902   -62053.004   -61742.287   -6234.7536    53.394183    296.46616    24.745022     184.5553          0.1    -10.58226 
  556000    294.82405   -62059.521   -61752.248   -6558.8833    53.394183    293.48451    24.643332     184.6053          0.1   0.69788936 
  557000    297.29102   -62066.024    -61756.18   -6232.9186    53.394183    295.72858    24.758297     184.6553          0.1    3.7813265 
  558000     300.5832   -62068.105    -61754.83   -6498.7771    53.394183    298.81592    25.110263     184.7053          0.1    7.1093462 
  559000    299.24567   -62064.667   -61752.786    -7404.553    53.394183    297.43939     25.54237     184.7553          0.1   -1.7848828 
  560000    296.28355   -62071.115   -61762.321   -7461.7995    53.394183    294.45963    25.892202     184.8053          0.1  -0.66381151 
  561000    294.51009   -62064.108   -61757.162   -7966.6394    53.394183    292.44876    25.999419     184.8553          0.1   -11.579732 
  562000    299.56329   -62061.802    -61749.59   -6746.9841    53.394183    296.71754      25.8231     184.9053          0.1   -3.6096701 
  563000    302.63397   -62058.764   -61743.352   -6152.7044    53.394183    299.10001    25.472762     184.9553          0.1 -0.088881616 
  564000    293.73341   -62057.674   -61751.537   -5737.6103    53.394183    289.69269    25.233594     185.0053          0.1    10.667978 
  565000    295.36734   -62055.294   -61747.455   -6175.4822    53.394183    291.08693    25.236713     185.0553          0.1   0.32646392 
  566000    297.71029   -62064.385   -61754.104   -5936.4844    53.394183    293.10835    25.447927     185.1053          0.1   -1.1669127 
  567000    295.63025   -62065.302   -61757.189   -6541.9256    53.394183    290.80527    25.821146     185.1553          0.1   0.55913907 
  568000    294.76676   -62063.268   -61756.055   -6640.1318    53.394183    289.70722    26.123194     185.2053          0.1   -7.1125807 
  569000     296.1065   -62061.056   -61752.447   -6443.3867    53.394183    290.50267    26.271715     185.2553          0.1   -4.7399618 
  570000    297.20928    -62063.64   -61753.881   -7196.9369    53.394183    291.59934    26.256404     185.3053          0.1   -3.5792062 
  571000    292.52581   -62068.835   -61763.957   -7068.6128    53.394183    288.04892    26.228569     185.3553          0.1    6.2300743 
  572000    299.64195   -62062.119   -61749.825   -6685.6635    53.394183    295.82431    26.199823     185.4053          0.1    2.4892418 
  573000    296.72118   -62063.222   -61753.972   -6413.3056    53.394183    293.99373    26.122297     185.4553          0.1     2.813749 
  574000     296.8415   -62059.408   -61750.033   -6593.1625    53.394183    294.68382    26.165516     185.5053          0.1    1.0053516 
  575000    296.38701   -62068.568   -61759.666   -6687.0001    53.394183    294.36974    26.199642     185.5553          0.1    2.5298489 
  576000    299.09111   -62061.812   -61750.092   -5880.8486    53.394183    296.39851    26.285859     185.6053          0.1    5.0011107 
  577000    300.35436   -62064.196   -61751.159   -5771.0391    53.394183    297.31486    26.413135     185.6553          0.1    7.2762304 
  578000    294.23248   -62066.356     -61759.7   -6248.6522    53.394183    290.26529    26.493168     185.7053          0.1    5.1258519 
  579000    300.27448   -62060.991   -61748.038   -6041.8015    53.394183    296.31796    26.439275     185.7553          0.1   -2.7522229 
  580000    300.75049   -62063.401   -61749.951   -7108.3383    53.394183    297.90661    26.098843     185.8053          0.1   -2.4566014 
  581000    294.56112   -62059.839    -61752.84   -5688.6069    53.394183    292.70859    25.578336     185.8553          0.1   -12.177347 
  582000    292.61707   -62055.068   -61750.095   -5468.7726    53.394183    290.87152    25.157141     185.9053          0.1  -0.40053433 
  583000    292.55125   -62050.953   -61746.049   -5416.7052    53.394183    290.49649    25.072404     185.9553          0.1   -14.635591 
  584000    300.61834   -62058.124   -61744.812   -5485.2171    53.394183    297.97478    25.272845     186.0053          0.1    3.9207142 
  585000    297.61735   -62067.761   -61757.577   -5367.7916    53.394183    295.07829    25.772438     186.0553          0.1    2.6129413 
  586000    298.10852   -62058.379   -61747.683    -6094.312    53.394183    295.16093    26.316495     186.1053          0.1    4.9727321 
  587000    295.48102   -62061.265   -61753.307   -6590.9411    53.394183    293.04008    26.654548     186.1553          0.1    1.3651945 
  588000    300.07028   -62058.834   -61746.093   -5727.3419    53.394183    297.97159    26.696669     186.2053          0.1   -5.7849973 
  589000    292.30668   -62057.534   -61752.885   -5941.0634    53.394183    291.16058    26.684739     186.2553          0.1    8.7830576 
  590000    296.94322   -62047.591   -61738.109   -6412.9449    53.394183    296.24525    26.787312     186.3053          0.1  -0.77939049 
  591000    293.29276    -62053.91   -61748.233   -5537.3083    53.394183    293.14709    26.872056     186.3553          0.1   -1.7392171 
  592000    298.74669   -62053.239   -61741.877   -6336.0902    53.394183    298.73787    27.016115     186.4053          0.1   -3.6643643 
  593000    299.62351   -62056.583   -61744.308   -6120.1554    53.394183    299.50082    27.022452     186.4553          0.1  -0.49351016 
  594000    296.52275   -62054.131   -61745.087   -6375.8961    53.394183    296.11399    26.724211     186.5053          0.1   -2.5290697 
  595000    297.29064   -62056.759   -61746.916   -5532.3714    53.394183    296.46282    26.273541     186.5553          0.1   -4.5117731 
  596000    293.90616   -62059.199   -61752.883   -5012.3341    53.394183    292.66098    25.924507     186.6053          0.1  -0.48964535 
  597000    297.08414   -62055.494   -61745.866     -5335.85    53.394183    295.65877    25.776909     186.6553          0.1    2.6938165 
  598000    297.21821   -62054.251   -61744.483   -4926.5832    53.394183    295.73029    25.881806     186.7053          0.1     9.090771 
  599000    294.62478   -62054.969   -61747.903   -5570.2926    53.394183    293.01499    26.299277     186.7553          0.1  0.065826802 
  600000    297.64473   -62052.929   -61742.716    -6991.891    53.394183    295.95216    26.790144     186.8053          0.1     10.91212 
Loop time of 1878.28 on 28 procs for 500000 steps with 8064 atoms

Performance: 11.500 ns/day, 2.087 hours/ns, 266.201 timesteps/s
98.9% CPU use with 28 MPI tasks x no OpenMP threads

MPI task timing breakdown:
Section |  min time  |  avg time  |  max time  |%varavg| %total
---------------------------------------------------------------
Pair    | 682.77     | 1383.2     | 1715.2     | 717.6 | 73.64
Neigh   | 5.0483     | 15.954     | 22.584     | 140.8 |  0.85
Comm    | 105.88     | 326.2      | 853.92     | 938.3 | 17.37
Output  | 0.17888    | 0.1834     | 0.29345    |   4.9 |  0.01
Modify  | 26.063     | 148.1      | 710.63     |1467.8 |  7.88
Other   |            | 4.627      |            |       |  0.25

Nlocal:        288.000 ave         375 max           0 min
Histogram: 2 0 0 2 0 2 0 0 13 9
Nghost:        1202.82 ave        2109 max         157 min
Histogram: 4 0 2 2 4 4 4 2 2 4
Neighs:        0.00000 ave           0 max           0 min
Histogram: 28 0 0 0 0 0 0 0 0 0
FullNghs:      54243.7 ave       74329 max           0 min
Histogram: 2 2 0 0 1 1 0 4 12 6

Total # of neighbors = 1518824
Ave neighs/atom = 188.34623
Neighbor list builds = 1846
Dangerous builds = 0
Total wall time: 0:37:18
