   2   2   0   0
  0.3885500E+02  0.2445837E-09  0.2445837E-09  0.1500000E-08  0.1500000E-16
  1.000000000000000E-004
  CAR 
 graphene                                
     12.42180382    -23.53999516  301     -2.78704034      1.00000000
    -23.540  0.0000E+00  0.0000E+00
    -23.420  0.0000E+00  0.0000E+00
    -23.300  0.0000E+00  0.0000E+00
    -23.180  0.0000E+00  0.0000E+00
    -23.061  0.0000E+00  0.0000E+00
    -22.941  0.0000E+00  0.0000E+00
    -22.821  0.0000E+00  0.0000E+00
    -22.701  0.0000E+00  0.0000E+00
    -22.581  0.0000E+00  0.0000E+00
    -22.461  0.0000E+00  0.0000E+00
    -22.341  0.0000E+00  0.0000E+00
    -22.221  0.0000E+00  0.0000E+00
    -22.102  0.1543E-10  0.1849E-11
    -21.982  0.1654E-04  0.1983E-05
    -21.862  0.1456E-02  0.1765E-03
    -21.742  0.5862E-02  0.8792E-03
    -21.622  0.3724E-02  0.1326E-02
    -21.502  0.8058E-02  0.2291E-02
    -21.382  0.1186E-02  0.2434E-02
    -21.262  0.5532E-02  0.3097E-02
    -21.143  0.7423E-02  0.3987E-02
    -21.023  0.5744E-02  0.4675E-02
    -20.903  0.5379E-03  0.4740E-02
    -20.783  0.4263E-02  0.5251E-02
    -20.663  0.1336E-01  0.6852E-02
    -20.543  0.1602E-02  0.7045E-02
    -20.423  0.3596E-02  0.7476E-02
    -20.303  0.2809E-02  0.7812E-02
    -20.184  0.2727E-02  0.8139E-02
    -20.064  0.1010E-01  0.9350E-02
    -19.944  0.1019E-01  0.1057E-01
    -19.824  0.2621E-02  0.1089E-01
    -19.704  0.2537E-04  0.1089E-01
    -19.584  0.4899E-02  0.1148E-01
    -19.464  0.2608E-02  0.1179E-01
    -19.344  0.1112E-01  0.1312E-01
    -19.225  0.6980E-02  0.1396E-01
    -19.105  0.2149E-02  0.1422E-01
    -18.985  0.1058E-01  0.1549E-01
    -18.865  0.9815E-04  0.1550E-01
    -18.745  0.2026E-05  0.1550E-01
    -18.625  0.3231E-02  0.1588E-01
    -18.505  0.1384E-01  0.1754E-01
    -18.385  0.5342E-02  0.1818E-01
    -18.266  0.9597E-02  0.1933E-01
    -18.146  0.4387E-04  0.1934E-01
    -18.026  0.4101E-02  0.1983E-01
    -17.906  0.8697E-02  0.2087E-01
    -17.786  0.2225E-04  0.2088E-01
    -17.666  0.5245E-04  0.2088E-01
    -17.546  0.6691E-02  0.2168E-01
    -17.426  0.1837E-01  0.2389E-01
    -17.307  0.9330E-03  0.2400E-01
    -17.187  0.1161E-01  0.2539E-01
    -17.067  0.8007E-03  0.2549E-01
    -16.947  0.2667E-04  0.2549E-01
    -16.827  0.8949E-02  0.2656E-01
    -16.707  0.3844E-02  0.2702E-01
    -16.587  0.2064E-03  0.2705E-01
    -16.468  0.1307E-01  0.2861E-01
    -16.348  0.1142E-01  0.2998E-01
    -16.228  0.1035E-01  0.3122E-01
    -16.108  0.2094E-03  0.3125E-01
    -15.988  0.5264E-09  0.3125E-01
    -15.868  0.4381E-07  0.3125E-01
    -15.748  0.6752E-03  0.3133E-01
    -15.628  0.3527E-02  0.3175E-01
    -15.509  0.6683E-02  0.3255E-01
    -15.389  0.1104E-01  0.3388E-01
    -15.269  0.3983E-02  0.3436E-01
    -15.149  0.9316E-02  0.3547E-01
    -15.029  0.3487E-04  0.3548E-01
    -14.909  0.2115E-03  0.3550E-01
    -14.789  0.1382E-01  0.3716E-01
    -14.669  0.5645E-02  0.3783E-01
    -14.550  0.5790E-02  0.3853E-01
    -14.430  0.6423E-02  0.3930E-01
    -14.310  0.1293E-01  0.4085E-01
    -14.190  0.5952E-04  0.4086E-01
    -14.070  0.1188E-07  0.4086E-01
    -13.950  0.1079E-02  0.4098E-01
    -13.830  0.1603E-01  0.4291E-01
    -13.710  0.8522E-02  0.4393E-01
    -13.591  0.1748E-04  0.4393E-01
    -13.471  0.4835E-02  0.4451E-01
    -13.351  0.7971E-02  0.4546E-01
    -13.231  0.1347E-04  0.4547E-01
    -13.111  0.1418E-02  0.4564E-01
    -12.991  0.8191E-02  0.4662E-01
    -12.871  0.1549E-01  0.4847E-01
    -12.751  0.6882E-02  0.4930E-01
    -12.632  0.7488E-04  0.4931E-01
    -12.512  0.4906E-10  0.4931E-01
    -12.392  0.6971E-06  0.4931E-01
    -12.272  0.4707E-02  0.4987E-01
    -12.152  0.1516E-01  0.5169E-01
    -12.032  0.2214E-01  0.5434E-01
    -11.912  0.2867E-02  0.5469E-01
    -11.792  0.1145E-06  0.5469E-01
    -11.673  0.4716E-09  0.5469E-01
    -11.553  0.2162E-03  0.5471E-01
    -11.433  0.1092E-01  0.5602E-01
    -11.313  0.1378E-01  0.5767E-01
    -11.193  0.7228E-03  0.5776E-01
    -11.073  0.4971E-02  0.5836E-01
    -10.953  0.7852E-02  0.5930E-01
    -10.833  0.1132E-01  0.6066E-01
    -10.714  0.7931E-02  0.6161E-01
    -10.594  0.8881E-02  0.6267E-01
    -10.474  0.3945E-02  0.6314E-01
    -10.354  0.9030E-02  0.6423E-01
    -10.234  0.4102E-02  0.6472E-01
    -10.114  0.3239E-02  0.6511E-01
     -9.994  0.7155E-02  0.6596E-01
     -9.875  0.2270E-01  0.6869E-01
     -9.755  0.2234E-01  0.7136E-01
     -9.635  0.6008E-02  0.7208E-01
     -9.515  0.1569E-01  0.7396E-01
     -9.395  0.1160E-01  0.7535E-01
     -9.275  0.2009E-02  0.7560E-01
     -9.155  0.1686E-01  0.7762E-01
     -9.035  0.1936E-01  0.7994E-01
     -8.916  0.2274E-01  0.8266E-01
     -8.796  0.1457E-01  0.8441E-01
     -8.676  0.1330E-01  0.8600E-01
     -8.556  0.1759E-01  0.8811E-01
     -8.436  0.2074E-01  0.9060E-01
     -8.316  0.5999E-02  0.9132E-01
     -8.196  0.3878E-02  0.9178E-01
     -8.076  0.2590E-01  0.9489E-01
     -7.957  0.1025E-01  0.9612E-01
     -7.837  0.1109E-01  0.9744E-01
     -7.717  0.1681E-03  0.9746E-01
     -7.597  0.6081E-02  0.9819E-01
     -7.477  0.2403E-01  0.1011E+00
     -7.357  0.1469E-01  0.1028E+00
     -7.237  0.6586E-02  0.1036E+00
     -7.117  0.1231E-01  0.1051E+00
     -6.998  0.4284E-03  0.1052E+00
     -6.878  0.9046E-02  0.1062E+00
     -6.758  0.1736E-01  0.1083E+00
     -6.638  0.1186E-01  0.1097E+00
     -6.518  0.3825E-03  0.1098E+00
     -6.398  0.1042E-01  0.1110E+00
     -6.278  0.7580E-02  0.1119E+00
     -6.158  0.1177E-01  0.1134E+00
     -6.039  0.1830E-01  0.1155E+00
     -5.919  0.3018E-02  0.1159E+00
     -5.799  0.8845E-02  0.1170E+00
     -5.679  0.1144E-01  0.1183E+00
     -5.559  0.5304E-02  0.1190E+00
     -5.439  0.1290E-02  0.1191E+00
     -5.319  0.6352E-02  0.1199E+00
     -5.199  0.7632E-02  0.1208E+00
     -5.080  0.1361E-01  0.1224E+00
     -4.960  0.1167E-01  0.1238E+00
     -4.840  0.1208E-01  0.1253E+00
     -4.720  0.4025E-02  0.1258E+00
     -4.600  0.1492E-04  0.1258E+00
     -4.480  0.2486E-02  0.1261E+00
     -4.360  0.3918E-02  0.1265E+00
     -4.240  0.3262E-02  0.1269E+00
     -4.121  0.1572E-01  0.1288E+00
     -4.001  0.6658E-02  0.1296E+00
     -3.881  0.5196E-05  0.1296E+00
     -3.761  0.1018E-12  0.1296E+00
     -3.641  0.2785E-09  0.1296E+00
     -3.521  0.1596E-03  0.1296E+00
     -3.401  0.5760E-02  0.1303E+00
     -3.282  0.4906E-03  0.1304E+00
     -3.162  0.3131E-05  0.1304E+00
     -3.042  0.3440E-02  0.1308E+00
     -2.922  0.2966E-02  0.1311E+00
     -2.802  0.1586E-05  0.1311E+00
     -2.682  0.2001E-13  0.1311E+00
     -2.562  0.0000E+00  0.1311E+00
     -2.442  0.0000E+00  0.1311E+00
     -2.323  0.0000E+00  0.1311E+00
     -2.203  0.0000E+00  0.1311E+00
     -2.083  0.3559E-18  0.1311E+00
     -1.963  0.2635E-08  0.1311E+00
     -1.843  0.3964E-03  0.1312E+00
     -1.723  0.5808E-02  0.1319E+00
     -1.603  0.2058E-03  0.1319E+00
     -1.483  0.1508E-02  0.1321E+00
     -1.364  0.4878E-02  0.1327E+00
     -1.244  0.2441E-04  0.1327E+00
     -1.124  0.4386E-11  0.1327E+00
     -1.004  0.5405E-06  0.1327E+00
     -0.884  0.5026E-02  0.1333E+00
     -0.764  0.2111E-01  0.1358E+00
     -0.644  0.1053E-01  0.1371E+00
     -0.524  0.1122E-01  0.1384E+00
     -0.405  0.1924E-03  0.1384E+00
     -0.285  0.1702E-04  0.1384E+00
     -0.165  0.8391E-02  0.1395E+00
     -0.045  0.9980E-02  0.1407E+00
      0.075  0.8425E-03  0.1408E+00
      0.195  0.3882E-03  0.1408E+00
      0.315  0.1160E-01  0.1422E+00
      0.435  0.2830E-02  0.1425E+00
      0.554  0.7097E-02  0.1434E+00
      0.674  0.1008E-01  0.1446E+00
      0.794  0.6284E-04  0.1446E+00
      0.914  0.5417E-03  0.1447E+00
      1.034  0.3304E-02  0.1451E+00
      1.154  0.3685E-02  0.1455E+00
      1.274  0.1182E-01  0.1469E+00
      1.394  0.1132E-01  0.1483E+00
      1.513  0.8829E-02  0.1493E+00
      1.633  0.8843E-03  0.1494E+00
      1.753  0.1287E-01  0.1510E+00
      1.873  0.1170E-01  0.1524E+00
      1.993  0.1354E-02  0.1525E+00
      2.113  0.1038E-01  0.1538E+00
      2.233  0.1147E-01  0.1552E+00
      2.353  0.6937E-02  0.1560E+00
      2.472  0.1243E-01  0.1575E+00
      2.592  0.2036E-01  0.1599E+00
      2.712  0.3539E-02  0.1603E+00
      2.832  0.8399E-02  0.1614E+00
      2.952  0.3088E-01  0.1651E+00
      3.072  0.6909E-02  0.1659E+00
      3.192  0.1731E-01  0.1680E+00
      3.311  0.9250E-02  0.1691E+00
      3.431  0.1705E-01  0.1711E+00
      3.551  0.1335E-01  0.1727E+00
      3.671  0.2363E-01  0.1755E+00
      3.791  0.1427E-02  0.1757E+00
      3.911  0.2230E-02  0.1760E+00
      4.031  0.2252E-01  0.1787E+00
      4.151  0.1708E-01  0.1807E+00
      4.270  0.3972E-02  0.1812E+00
      4.390  0.2028E-01  0.1836E+00
      4.510  0.2666E-01  0.1868E+00
      4.630  0.1268E-01  0.1884E+00
      4.750  0.1809E-01  0.1905E+00
      4.870  0.1941E-01  0.1929E+00
      4.990  0.1609E-01  0.1948E+00
      5.110  0.3919E-02  0.1952E+00
      5.229  0.2918E-01  0.1987E+00
      5.349  0.1634E-01  0.2007E+00
      5.469  0.1418E-01  0.2024E+00
      5.589  0.2774E-01  0.2057E+00
      5.709  0.3249E-01  0.2096E+00
      5.829  0.2939E-01  0.2131E+00
      5.949  0.2523E-01  0.2162E+00
      6.069  0.1899E-01  0.2184E+00
      6.188  0.6787E-02  0.2193E+00
      6.308  0.1212E-02  0.2194E+00
      6.428  0.1137E-01  0.2208E+00
      6.548  0.4048E-02  0.2213E+00
      6.668  0.1529E-01  0.2231E+00
      6.788  0.5369E-02  0.2237E+00
      6.908  0.2669E-01  0.2269E+00
      7.028  0.2250E-01  0.2296E+00
      7.147  0.1594E-01  0.2315E+00
      7.267  0.1044E-01  0.2328E+00
      7.387  0.5448E-02  0.2334E+00
      7.507  0.2204E-01  0.2361E+00
      7.627  0.7714E-03  0.2362E+00
      7.747  0.5495E-02  0.2368E+00
      7.867  0.3308E-02  0.2372E+00
      7.987  0.1077E-01  0.2385E+00
      8.106  0.1746E-01  0.2406E+00
      8.226  0.7467E-02  0.2415E+00
      8.346  0.2480E-01  0.2445E+00
      8.466  0.3425E-01  0.2486E+00
      8.586  0.1191E-01  0.2500E+00
      8.706  0.7481E-02  0.2509E+00
      8.826  0.1679E-01  0.2529E+00
      8.945  0.1224E-01  0.2544E+00
      9.065  0.4613E-02  0.2549E+00
      9.185  0.1432E-01  0.2567E+00
      9.305  0.6452E-02  0.2574E+00
      9.425  0.2082E-02  0.2577E+00
      9.545  0.3867E-06  0.2577E+00
      9.665  0.1616E-14  0.2577E+00
      9.785  0.9725E-07  0.2577E+00
      9.904  0.1595E-02  0.2579E+00
     10.024  0.1977E-01  0.2602E+00
     10.144  0.1068E-01  0.2615E+00
     10.264  0.1052E-04  0.2615E+00
     10.384  0.3250E-12  0.2615E+00
     10.504  0.3559E-17  0.2615E+00
     10.624  0.1210E-07  0.2615E+00
     10.744  0.6975E-03  0.2616E+00
     10.863  0.5614E-02  0.2623E+00
     10.983  0.9923E-04  0.2623E+00
     11.103  0.9256E-10  0.2623E+00
     11.223  0.0000E+00  0.2623E+00
     11.343  0.0000E+00  0.2623E+00
     11.463  0.0000E+00  0.2623E+00
     11.583  0.0000E+00  0.2623E+00
     11.703  0.0000E+00  0.2623E+00
     11.822  0.0000E+00  0.2623E+00
     11.942  0.0000E+00  0.2623E+00
     12.062  0.0000E+00  0.2623E+00
     12.182  0.0000E+00  0.2623E+00
     12.302  0.0000E+00  0.2623E+00
     12.422  0.0000E+00  0.2623E+00
