    2    2   61    1
  0.3885500E+02  0.2445837E-09  0.2445837E-09  0.1500000E-08  0.1500000E-16
  1.000000000000000E-004
  CAR 
 graphene                                
      8     30      8
 
  0.0000000E+00  0.0000000E+00  0.0000000E+00  0.3906250E-02
    1      -21.905368   1.000000
    2      -10.217205   1.000000
    3       -5.444014   1.000000
    4       -5.444013   1.000000
    5        0.913477   0.000000
    6        1.969624   0.000000
    7        2.438653   0.000000
    8        4.277229   0.000000
 
  0.6250000E-01  0.1167585E-17  0.0000000E+00  0.2343750E-01
    1      -21.812371   1.000000
    2      -10.104496   1.000000
    3       -5.811931   1.000000
    4       -5.644893   1.000000
    5        1.039832   0.000000
    6        2.097755   0.000000
    7        2.568363   0.000000
    8        4.404618   0.000000
 
  0.1250000E+00  0.2335169E-17  0.0000000E+00  0.2343750E-01
    1      -21.533926   1.000000
    2       -9.767960   1.000000
    3       -6.806341   1.000000
    4       -6.162829   1.000000
    5        1.419039   0.000000
    6        2.481603   0.000000
    7        2.957557   0.000000
    8        4.785952   0.000000
 
  0.1875000E+00 -0.4982948E-17  0.0000000E+00  0.2343750E-01
    1      -21.071715   1.000000
    2       -9.213055   1.000000
    3       -8.201559   1.000000
    4       -6.828012   1.000000
    5        2.050627   0.000000
    6        3.118597   0.000000
    7        3.606007   0.000000
    8        5.414424   0.000000
 
  0.2500000E+00  0.4670338E-17  0.0000000E+00  0.2343750E-01
    1      -20.428789   1.000000
    2       -9.797636   1.000000
    3       -8.449367   1.000000
    4       -7.496997   1.000000
    5        2.931664   0.000000
    6        3.984943   0.000000
    7        4.509005   0.000000
    8        4.975007   0.000000
 
  0.3125000E+00  0.2051086E-16  0.0000000E+00  0.2343750E-01
    1      -19.610104   1.000000
    2      -11.454509   1.000000
    3       -8.079015   1.000000
    4       -7.501283   1.000000
    5        3.133450   0.000000
    6        4.070904   0.000000
    7        5.187584   0.000000
    8        5.593231   0.000000
 
  0.3750000E+00 -0.9965896E-17  0.0000000E+00  0.2343750E-01
    1      -18.624263   1.000000
    2      -13.083894   1.000000
    3       -8.521948   1.000000
    4       -6.419327   1.000000
    5        1.403861   0.000000
    6        5.317426   0.000000
    7        5.589229   0.000000
    8        6.565996   0.000000
 
  0.4375000E+00 -0.3126100E-18  0.0000000E+00  0.2343750E-01
    1      -17.493143   1.000000
    2      -14.617081   1.000000
    3       -8.797151   1.000000
    4       -5.355921   1.000000
    5       -0.084566   0.000000
    6        5.317158   0.000000
    7        7.080269   0.000000
    8        8.178208   0.000000
 
  0.5000000E+00  0.9340676E-17  0.0000000E+00  0.1171875E-01
    1      -16.526881   1.000000
    2      -15.719843   1.000000
    3       -8.890330   1.000000
    4       -4.812591   1.000000
    5       -0.774664   0.000000
    6        5.277878   0.000000
    7        8.857001   0.000000
    8        8.950677   0.000000
 
  0.6250000E-01  0.6250000E-01  0.0000000E+00  0.2343750E-01
    1      -21.626651   1.000000
    2       -9.879854   1.000000
    3       -6.450869   1.000000
    4       -6.046916   1.000000
    5        1.292690   0.000000
    6        2.353773   0.000000
    7        2.827850   0.000000
    8        4.659059   0.000000
 
  0.1250000E+00  0.6250000E-01  0.0000000E+00  0.4687500E-01
    1      -21.256331   1.000000
    2       -9.433909   1.000000
    3       -7.570017   1.000000
    4       -6.715439   1.000000
    5        1.798444   0.000000
    6        2.864598   0.000000
    7        3.346874   0.000000
    8        5.165996   0.000000
 
  0.1875000E+00  0.6250000E-01  0.0000000E+00  0.4687500E-01
    1      -20.703791   1.000000
    2       -9.015635   1.000000
    3       -8.771960   1.000000
    4       -7.435444   1.000000
    5        2.555673   0.000000
    6        3.624682   0.000000
    7        4.124593   0.000000
    8        5.636555   0.000000
 
  0.2500000E+00  0.6250000E-01  0.0000000E+00  0.4687500E-01
    1      -19.973015   1.000000
    2      -10.611727   1.000000
    3       -8.089421   1.000000
    4       -7.915464   1.000000
    5        3.548162   0.000000
    6        3.945893   0.000000
    7        4.693007   0.000000
    8        5.163675   0.000000
 
  0.3125000E+00  0.6250000E-01  0.0000000E+00  0.4687500E-01
    1      -19.070568   1.000000
    2      -12.240460   1.000000
    3       -8.615734   1.000000
    4       -6.891902   1.000000
    5        2.213146   0.000000
    6        4.816462   0.000000
    7        5.920258   0.000000
    8        5.955858   0.000000
 
  0.3750000E+00  0.6250000E-01  0.0000000E+00  0.4687500E-01
    1      -18.009310   1.000000
    2      -13.817270   1.000000
    3       -8.981202   1.000000
    4       -5.786955   1.000000
    5        0.582893   0.000000
    6        5.757582   0.000000
    7        6.354834   0.000000
    8        7.418892   0.000000
 
  0.4375000E+00  0.6250000E-01  0.0000000E+00  0.4687500E-01
    1      -16.845678   1.000000
    2      -15.247188   1.000000
    3       -9.167849   1.000000
    4       -4.881384   1.000000
    5       -0.601160   0.000000
    6        5.694258   0.000000
    7        8.053290   0.000000
    8        9.093044   0.000000
 
  0.1250000E+00  0.1250000E+00  0.0000000E+00  0.2343750E-01
    1      -20.795701   1.000000
    2       -8.884191   1.000000
    3       -8.579338   1.000000
    4       -7.596636   1.000000
    5        2.430422   0.000000
    6        3.500791   0.000000
    7        3.995660   0.000000
    8        5.796823   0.000000
 
  0.1875000E+00  0.1250000E+00  0.0000000E+00  0.4687500E-01
    1      -20.155366   1.000000
    2       -9.873923   1.000000
    3       -8.455883   1.000000
    4       -8.124839   1.000000
    5        3.310095   0.000000
    6        4.349081   0.000000
    7        4.515285   0.000000
    8        4.909013   0.000000
 
  0.2500000E+00  0.1250000E+00  0.0000000E+00  0.4687500E-01
    1      -19.340775   1.000000
    2      -11.369097   1.000000
    3       -9.128297   1.000000
    4       -7.182918   1.000000
    5        2.861426   0.000000
    6        4.451455   0.000000
    7        5.523328   0.000000
    8        6.071122   0.000000
 
  0.3125000E+00  0.1250000E+00  0.0000000E+00  0.4687500E-01
    1      -18.361410   1.000000
    2      -12.915124   1.000000
    3       -9.608205   1.000000
    4       -6.104474   1.000000
    5        1.246546   0.000000
    6        5.817106   0.000000
    7        6.876465   0.000000
    8        6.964471   0.000000
 
  0.3750000E+00  0.1250000E+00  0.0000000E+00  0.4687500E-01
    1      -17.240997   1.000000
    2      -14.402095   1.000000
    3       -9.897618   1.000000
    4       -5.032184   1.000000
    5       -0.178452   0.000000
    6        6.821563   0.000000
    7        7.448181   0.000000
    8        8.391996   0.000000
 
  0.4375000E+00  0.1250000E+00  0.0000000E+00  0.2343750E-01
    1      -16.293006   1.000000
    2      -15.476200   1.000000
    3       -9.994463   1.000000
    4       -4.470172   1.000000
    5       -0.863195   0.000000
    6        6.790963   0.000000
    7        9.169085   0.000000
    8        9.289052   0.000000
 
  0.1875000E+00  0.1875000E+00  0.0000000E+00  0.2343750E-01
    1      -19.431217   1.000000
    2      -10.836776   1.000000
    3       -9.561212   1.000000
    4       -7.281089   1.000000
    5        3.123048   0.000000
    6        4.329121   0.000000
    7        5.379774   0.000000
    8        5.943285   0.000000
 
  0.2500000E+00  0.1875000E+00  0.0000000E+00  0.4687500E-01
    1      -18.539303   1.000000
    2      -12.064151   1.000000
    3      -10.373200   1.000000
    4       -6.271151   1.000000
    5        1.686359   0.000000
    6        5.574483   0.000000
    7        6.585638   0.000000
    8        7.237288   0.000000
 
  0.3125000E+00  0.1875000E+00  0.0000000E+00  0.4687500E-01
    1      -17.495079   1.000000
    2      -13.459633   1.000000
    3      -10.843794   1.000000
    4       -5.166130   1.000000
    5        0.261144   0.000000
    6        7.051463   0.000000
    7        7.897362   0.000000
    8        8.438198   0.000000
 
  0.3750000E+00  0.1875000E+00  0.0000000E+00  0.4687500E-01
    1      -16.360829   1.000000
    2      -14.800680   1.000000
    3      -11.063162   1.000000
    4       -4.217061   1.000000
    5       -0.860541   0.000000
    6        8.339580   0.000000
    7        8.745152   0.000000
    8        8.837548   0.000000
 
  0.2500000E+00  0.2500000E+00  0.0000000E+00  0.2343750E-01
    1      -17.581355   1.000000
    2      -12.831627   1.000000
    3      -11.486739   1.000000
    4       -5.217667   1.000000
    5        0.451925   0.000000
    6        6.929998   0.000000
    7        7.707146   0.000000
    8        8.655463   0.000000
 
  0.3125000E+00  0.2500000E+00  0.0000000E+00  0.4687500E-01
    1      -16.496735   1.000000
    2      -13.901447   1.000000
    3      -12.093947   1.000000
    4       -4.119161   1.000000
    5       -0.754232   0.000000
    6        8.299722   0.000000
    7        8.482940   0.000000
    8       10.031653   0.000000
 
  0.3750000E+00  0.2500000E+00  0.0000000E+00  0.2343750E-01
    1      -15.592950   1.000000
    2      -14.843101   1.000000
    3      -12.259432   1.000000
    4       -3.451905   1.000000
    5       -1.457905   0.000000
    6        8.331578   0.000000
    7        9.932106   0.000000
    8       10.018506   0.000000
 
  0.3125000E+00  0.3125000E+00  0.0000000E+00  0.2343750E-01
    1      -15.439968   1.000000
    2      -14.433143   1.000000
    3      -12.988716   1.000000
    4       -3.045057   1.000000
    5       -1.788612   0.000000
    6        8.060934   0.000000
    7        9.970685   0.000000
    8       10.787177   0.000000
