       N       E                     dE             d eps       ncg     rms          rms(c)
DAV:   1     0.702861798575E+02    0.70286E+02   -0.45750E+03   480   0.122E+03
DAV:   2    -0.169679184967E+02   -0.87254E+02   -0.73044E+02   728   0.154E+02
DAV:   3    -0.217263670811E+02   -0.47584E+01   -0.47584E+01   688   0.582E+01
DAV:   4    -0.217605587811E+02   -0.34192E-01   -0.34192E-01   744   0.530E+00
DAV:   5    -0.217606214963E+02   -0.62715E-04   -0.62715E-04   728   0.247E-01    0.588E+00
DAV:   6    -0.206253485417E+02    0.11353E+01   -0.11781E+00   584   0.774E+00    0.303E+00
DAV:   7    -0.202171789991E+02    0.40817E+00   -0.12896E+00   816   0.792E+00    0.535E-01
DAV:   8    -0.202077838807E+02    0.93951E-02   -0.10908E-02   648   0.102E+00    0.102E-01
DAV:   9    -0.202057559014E+02    0.20280E-02   -0.28452E-03   672   0.335E-01    0.690E-02
DAV:  10    -0.202044759730E+02    0.12799E-02   -0.22647E-03   616   0.238E-01    0.268E-02
DAV:  11    -0.202046184548E+02   -0.14248E-03   -0.23748E-04   544   0.766E-02    0.160E-02
DAV:  12    -0.202055010928E+02   -0.88264E-03   -0.22335E-04   704   0.744E-02    0.961E-03
DAV:  13    -0.202060210071E+02   -0.51991E-03   -0.14297E-04   552   0.449E-02    0.424E-03
DAV:  14    -0.202060888014E+02   -0.67794E-04   -0.11572E-05   640   0.181E-02    0.251E-03
DAV:  15    -0.202061535389E+02   -0.64738E-04   -0.86779E-06   544   0.110E-02    0.724E-04
DAV:  16    -0.202061598467E+02   -0.63078E-05   -0.42806E-07   632   0.388E-03
   1 F= -.20206160E+02 E0= -.20206160E+02  d E =-.251406E-14
 Found     2 degrees of freedom:
 Adding 6 more for cell shape distortion
       N       E                     dE             d eps       ncg     rms          rms(c)
DAV:   1    -0.201970018939E+02    0.91516E-02   -0.31253E-01  1312   0.569E+00    0.352E-01
DAV:   2    -0.201943787679E+02    0.26231E-02   -0.73789E-03  1416   0.883E-01    0.205E-01
DAV:   3    -0.201929500606E+02    0.14287E-02   -0.38842E-03  1544   0.602E-01    0.246E-02
DAV:   4    -0.201929698420E+02   -0.19781E-04   -0.34097E-04  1576   0.165E-01    0.145E-02
DAV:   5    -0.201929772829E+02   -0.74409E-05   -0.18835E-05  1432   0.390E-02
   2 F= -.20192977E+02 E0= -.20192977E+02  d E =-.144562E-15
       N       E                     dE             d eps       ncg     rms          rms(c)
DAV:   1    -0.202088534160E+02   -0.15884E-01   -0.98534E-01  1288   0.102E+01    0.718E-01
DAV:   2    -0.201974666694E+02    0.11387E-01   -0.24077E-02  1456   0.160E+00    0.412E-01
DAV:   3    -0.201919172407E+02    0.55494E-02   -0.15395E-02  1656   0.118E+00    0.499E-02
DAV:   4    -0.201919563924E+02   -0.39152E-04   -0.12004E-03  1600   0.318E-01    0.285E-02
DAV:   5    -0.201919405372E+02    0.15855E-04   -0.54467E-05  1544   0.666E-02    0.373E-03
DAV:   6    -0.201919489455E+02   -0.84083E-05   -0.36654E-06  1472   0.163E-02
   3 F= -.20191949E+02 E0= -.20191949E+02  d E =-.483478E-18
       N       E                     dE             d eps       ncg     rms          rms(c)
DAV:   1    -0.201980548517E+02   -0.61143E-02   -0.71241E-01  1400   0.879E+00    0.404E-01
DAV:   2    -0.201950470647E+02    0.30078E-02   -0.93346E-03  1432   0.926E-01    0.245E-01
DAV:   3    -0.201928456589E+02    0.22014E-02   -0.27777E-03  1736   0.416E-01    0.142E-02
DAV:   4    -0.201928870218E+02   -0.41363E-04   -0.44256E-05  1568   0.555E-02    0.924E-03
DAV:   5    -0.201929555679E+02   -0.68546E-04   -0.20347E-05  1464   0.266E-02    0.412E-03
DAV:   6    -0.201929620919E+02   -0.65240E-05   -0.38901E-07  1664   0.446E-03
   4 F= -.20192962E+02 E0= -.20192962E+02  d E =-.389638E-11
       N       E                     dE             d eps       ncg     rms          rms(c)
DAV:   1    -0.202087362409E+02   -0.15781E-01   -0.10000E+00  1256   0.102E+01    0.716E-01
DAV:   2    -0.201974789540E+02    0.11257E-01   -0.23949E-02  1688   0.160E+00    0.412E-01
DAV:   3    -0.201919099712E+02    0.55690E-02   -0.15207E-02  1768   0.119E+00    0.505E-02
DAV:   4    -0.201919391381E+02   -0.29167E-04   -0.11077E-03  1608   0.313E-01    0.273E-02
DAV:   5    -0.201919303445E+02    0.87935E-05   -0.57929E-05  1568   0.667E-02
   5 F= -.20191930E+02 E0= -.20191930E+02  d E =-.138325E-14
       N       E                     dE             d eps       ncg     rms          rms(c)
DAV:   1    -0.202198540372E+02   -0.27915E-01   -0.75081E-01   624   0.786E+00    0.582E-01
DAV:   2    -0.202087344536E+02    0.11120E-01   -0.20061E-02   536   0.122E+00    0.305E-01
DAV:   3    -0.202052450701E+02    0.34894E-02   -0.17203E-02   672   0.949E-01    0.512E-02
DAV:   4    -0.202056810562E+02   -0.43599E-03   -0.39427E-04   600   0.191E-01    0.187E-02
DAV:   5    -0.202059588707E+02   -0.27781E-03   -0.11727E-04   688   0.866E-02    0.769E-03
DAV:   6    -0.202060404223E+02   -0.81552E-04   -0.41400E-05   544   0.386E-02    0.323E-03
DAV:   7    -0.202060557996E+02   -0.15377E-04   -0.27185E-06   648   0.994E-03    0.211E-03
DAV:   8    -0.202060744685E+02   -0.18669E-04   -0.48642E-06   664   0.100E-02    0.114E-03
DAV:   9    -0.202061124233E+02   -0.37955E-04   -0.21677E-06   680   0.635E-03    0.771E-04
DAV:  10    -0.202061230808E+02   -0.10658E-04   -0.60524E-07   536   0.418E-03    0.485E-04
DAV:  11    -0.202061262300E+02   -0.31492E-05   -0.29015E-07   592   0.252E-03
   6 F= -.20206126E+02 E0= -.20206126E+02  d E =-.234888E-14
       N       E                     dE             d eps       ncg     rms          rms(c)
DAV:   1    -0.202829520350E+02   -0.76829E-01   -0.27756E+00   592   0.138E+01    0.107E+00
DAV:   2    -0.202281884502E+02    0.54764E-01   -0.70570E-02   560   0.193E+00    0.548E-01
DAV:   3    -0.202058687826E+02    0.22320E-01   -0.72906E-02   640   0.179E+00    0.946E-02
DAV:   4    -0.202061863743E+02   -0.31759E-03   -0.11145E-03   680   0.294E-01    0.348E-02
DAV:   5    -0.202061039710E+02    0.82403E-04   -0.56906E-04   664   0.151E-01    0.176E-02
DAV:   6    -0.202062082464E+02   -0.10428E-03   -0.27468E-04   536   0.816E-02    0.719E-03
DAV:   7    -0.202061952359E+02    0.13010E-04   -0.14277E-05   552   0.220E-02    0.401E-03
DAV:   8    -0.202061608601E+02    0.34376E-04   -0.81241E-06   656   0.159E-02    0.276E-03
DAV:   9    -0.202061716726E+02   -0.10812E-04   -0.61224E-06   568   0.125E-02    0.154E-03
DAV:  10    -0.202061826664E+02   -0.10994E-04   -0.11265E-06   528   0.685E-03    0.103E-03
DAV:  11    -0.202061886476E+02   -0.59812E-05   -0.33037E-07   656   0.300E-03
   7 F= -.20206189E+02 E0= -.20206189E+02  d E =-.247952E-14
       N       E                     dE             d eps       ncg     rms          rms(c)
DAV:   1    -0.202230083211E+02   -0.16826E-01   -0.89171E-01  2504   0.812E+00    0.605E-01
DAV:   2    -0.202072671138E+02    0.15741E-01   -0.23515E-02  2536   0.132E+00    0.322E-01
DAV:   3    -0.202001677015E+02    0.70994E-02   -0.23240E-02  2968   0.109E+00    0.570E-02
DAV:   4    -0.202001891946E+02   -0.21493E-04   -0.41671E-04  2632   0.194E-01    0.249E-02
DAV:   5    -0.202001470347E+02    0.42160E-04   -0.14325E-04  2832   0.878E-02    0.940E-03
DAV:   6    -0.202002604199E+02   -0.11339E-03   -0.29178E-05  2400   0.327E-02    0.653E-03
DAV:   7    -0.202003035460E+02   -0.43126E-04   -0.15584E-05  2576   0.244E-02    0.304E-03
DAV:   8    -0.202003427603E+02   -0.39214E-04   -0.11378E-05  2920   0.150E-02    0.160E-03
DAV:   9    -0.202003632763E+02   -0.20516E-04   -0.76885E-07  3144   0.475E-03    0.925E-04
DAV:  10    -0.202003877565E+02   -0.24480E-04   -0.16731E-06  2864   0.602E-03    0.690E-04
DAV:  11    -0.202003990460E+02   -0.11289E-04   -0.71189E-07  2368   0.402E-03    0.182E-04
DAV:  12    -0.202004001965E+02   -0.11505E-05   -0.21695E-08  2944   0.949E-04
   8 F= -.20200400E+02 E0= -.20200400E+02  d E =-.137501E-12
       N       E                     dE             d eps       ncg     rms          rms(c)
DAV:   1    -0.202125362970E+02   -0.12137E-01   -0.38945E-01  2608   0.578E+00    0.591E-01
DAV:   2    -0.202037809472E+02    0.87553E-02   -0.13741E-02  2720   0.126E+00    0.326E-01
DAV:   3    -0.202003557109E+02    0.34252E-02   -0.12037E-02  2552   0.107E+00    0.355E-02
DAV:   4    -0.202004023968E+02   -0.46686E-04   -0.94001E-04  2520   0.284E-01    0.190E-02
DAV:   5    -0.202004014225E+02    0.97434E-06   -0.21497E-05  2896   0.384E-02
   9 F= -.20200401E+02 E0= -.20200401E+02  d E =-.708493E-13
       N       E                     dE             d eps       ncg     rms          rms(c)
DAV:   1    -0.202220791861E+02   -0.21677E-01   -0.33046E-01  1296   0.559E+00    0.273E-01
DAV:   2    -0.202157702520E+02    0.63089E-02   -0.70324E-03  1696   0.885E-01    0.169E-01
DAV:   3    -0.202064704929E+02    0.92998E-02   -0.32590E-03  1600   0.562E-01    0.110E-02
DAV:   4    -0.202063606088E+02    0.10988E-03   -0.29013E-04  1624   0.149E-01    0.699E-03
DAV:   5    -0.202061672598E+02    0.19335E-03   -0.69092E-06  1632   0.253E-02    0.117E-03
DAV:   6    -0.202061632325E+02    0.40273E-05   -0.59046E-07  1112   0.668E-03
  10 F= -.20206163E+02 E0= -.20206163E+02  d E =-.219498E-14
       N       E                     dE             d eps       ncg     rms          rms(c)
DAV:   1    -0.202068476737E+02   -0.68041E-03   -0.48493E-01  1256   0.616E+00    0.280E-01
DAV:   2    -0.202066010948E+02    0.24658E-03   -0.65824E-03  1520   0.813E-01    0.167E-01
DAV:   3    -0.202061555006E+02    0.44559E-03   -0.57917E-04  1552   0.199E-01    0.113E-02
DAV:   4    -0.202061588933E+02   -0.33927E-05   -0.18322E-05  1800   0.411E-02
  11 F= -.20206159E+02 E0= -.20206159E+02  d E =-.239030E-14
       N       E                     dE             d eps       ncg     rms          rms(c)
DAV:   1    -0.202063062151E+02   -0.15071E-03   -0.43301E-01  1256   0.579E+00    0.188E-01
DAV:   2    -0.202064338626E+02   -0.12765E-03   -0.57308E-03  1576   0.744E-01    0.116E-01
DAV:   3    -0.202061620483E+02    0.27181E-03   -0.30024E-04  1512   0.147E-01    0.784E-03
DAV:   4    -0.202061619934E+02    0.54925E-07   -0.11557E-05  1720   0.320E-02
  12 F= -.20206162E+02 E0= -.20206162E+02  d E =-.253142E-14
       N       E                     dE             d eps       ncg     rms          rms(c)
DAV:   1    -0.202067693323E+02   -0.60728E-03   -0.48017E-01  1264   0.615E+00    0.280E-01
DAV:   2    -0.202065971026E+02    0.17223E-03   -0.73163E-03  1512   0.823E-01    0.167E-01
DAV:   3    -0.202061557810E+02    0.44132E-03   -0.58050E-04  1688   0.198E-01    0.117E-02
DAV:   4    -0.202061591341E+02   -0.33531E-05   -0.17250E-05  1544   0.399E-02
  13 F= -.20206159E+02 E0= -.20206159E+02  d E =-.247957E-14
       N       E                     dE             d eps       ncg     rms          rms(c)
DAV:   1    -0.202000093689E+02    0.61464E-02   -0.73180E-01  2272   0.826E+00    0.208E-01
DAV:   2    -0.202001486168E+02   -0.13925E-03   -0.92998E-03  3064   0.995E-01    0.129E-01
DAV:   3    -0.201997871911E+02    0.36143E-03   -0.10591E-03  2880   0.318E-01    0.169E-02
DAV:   4    -0.201997867893E+02    0.40183E-06   -0.91021E-05  2960   0.908E-02
  14 F= -.20199787E+02 E0= -.20199787E+02  d E =-.179908E-13
       N       E                     dE             d eps       ncg     rms          rms(c)
DAV:   1    -0.202021696998E+02   -0.23825E-02   -0.11325E+00  2272   0.962E+00    0.340E-01
DAV:   2    -0.202007115212E+02    0.14582E-02   -0.10449E-02  2840   0.109E+00    0.197E-01
DAV:   3    -0.201997828271E+02    0.92869E-03   -0.31924E-03  2680   0.554E-01    0.248E-02
DAV:   4    -0.201997873111E+02   -0.44840E-05   -0.28458E-04  2672   0.160E-01    0.133E-02
DAV:   5    -0.201997839838E+02    0.33274E-05   -0.15432E-05  2848   0.343E-02
  15 F= -.20199784E+02 E0= -.20199784E+02  d E =-.119136E-13
       N       E                     dE             d eps       ncg     rms          rms(c)
DAV:   1    -0.202135293462E+02   -0.13742E-01   -0.10896E+00   496   0.103E+01    0.195E-01
DAV:   2    -0.202103053803E+02    0.32240E-02   -0.83167E-03   776   0.957E-01    0.117E-01
DAV:   3    -0.202046145729E+02    0.56908E-02   -0.12712E-03   696   0.327E-01    0.892E-03
DAV:   4    -0.202042863804E+02    0.32819E-03   -0.11803E-04   736   0.955E-02    0.432E-03
DAV:   5    -0.202041614783E+02    0.12490E-03   -0.72144E-06   600   0.214E-02    0.891E-04
DAV:   6    -0.202041596721E+02    0.18062E-05   -0.85483E-07   696   0.790E-03
  16 F= -.20204160E+02 E0= -.20204160E+02  d E =-.180206E-14
       N       E                     dE             d eps       ncg     rms          rms(c)
DAV:   1    -0.202047259046E+02   -0.56443E-03   -0.21145E+00   480   0.137E+01    0.248E-01
DAV:   2    -0.202049079187E+02   -0.18201E-03   -0.12183E-02   728   0.121E+00    0.147E-01
DAV:   3    -0.202041704200E+02    0.73750E-03   -0.22062E-03   696   0.378E-01    0.140E-02
DAV:   4    -0.202041651095E+02    0.53105E-05   -0.15453E-04   704   0.119E-01    0.821E-03
DAV:   5    -0.202041550303E+02    0.10079E-04   -0.45234E-05   576   0.492E-02    0.191E-03
DAV:   6    -0.202041557343E+02   -0.70399E-06   -0.28142E-06   696   0.157E-02
  17 F= -.20204156E+02 E0= -.20204156E+02  d E =-.180061E-14
