graphene                                
           1
     2.445837    0.000000    0.000000
    -1.222918    2.118157    0.000000
     0.000000    0.000000   15.000000
   C 
   2
Direct configuration=     1
   0.00000000  0.00000000  0.25000000
   0.33333334  0.66666669  0.25000000
graphene                                
           1
     2.482525    0.000000    0.000000
    -1.241262    2.118157    0.000000
     0.000000    0.000000   15.000000
   C 
   2
Direct configuration=     2
   0.00000000  0.00000000  0.25000000
   0.33333334  0.66666669  0.25000000
graphene                                
           1
     2.409149    0.000000    0.000000
    -1.204575    2.118157    0.000000
     0.000000    0.000000   15.000000
   C 
   2
Direct configuration=     3
   0.00000000  0.00000000  0.25000000
   0.33333334  0.66666669  0.25000000
graphene                                
           1
     2.445837    0.000000    0.000000
    -1.222918    2.149929    0.000000
     0.000000    0.000000   15.000000
   C 
   2
Direct configuration=     4
   0.00000000  0.00000000  0.25000000
   0.33333334  0.66666669  0.25000000
graphene                                
           1
     2.445837    0.000000    0.000000
    -1.222918    2.086385    0.000000
     0.000000    0.000000   15.000000
   C 
   2
Direct configuration=     5
   0.00000000  0.00000000  0.25000000
   0.33333334  0.66666669  0.25000000
graphene                                
           1
     2.445837    0.000000    0.000000
    -1.222918    2.118157    0.000000
     0.000000    0.000000   15.225000
   C 
   2
Direct configuration=     6
   0.00000000  0.00000000  0.25000000
   0.33333334  0.66666669  0.25000000
graphene                                
           1
     2.445837    0.000000    0.000000
    -1.222918    2.118157    0.000000
     0.000000    0.000000   14.775000
   C 
   2
Direct configuration=     7
   0.00000000  0.00000000  0.25000000
   0.33333334  0.66666669  0.25000000
graphene                                
           1
     2.445837    0.036688    0.000000
    -1.222918    2.099813    0.000000
     0.000000    0.000000   15.000000
   C 
   2
Direct configuration=     8
   0.00000000  0.00000000  0.25000000
   0.33333334  0.66666669  0.25000000
graphene                                
           1
     2.445837   -0.036688    0.000000
    -1.222918    2.136501    0.000000
     0.000000    0.000000   15.000000
   C 
   2
Direct configuration=     9
   0.00000000  0.00000000  0.25000000
   0.33333334  0.66666669  0.25000000
graphene                                
           1
     2.445837    0.000000    0.000000
    -1.222918    2.118157    0.031772
     0.000000    0.000000   15.000000
   C 
   2
Direct configuration=    10
   0.00000000  0.00000000  0.25000000
   0.33333334  0.66666669  0.25000000
graphene                                
           1
     2.445837    0.000000    0.000000
    -1.222918    2.118157   -0.031772
     0.000000    0.000000   15.000000
   C 
   2
Direct configuration=    11
   0.00000000  0.00000000  0.25000000
   0.33333334  0.66666669  0.25000000
graphene                                
           1
     2.445837    0.000000    0.000000
    -1.222918    2.118157    0.000000
     0.225000    0.000000   15.000000
   C 
   2
Direct configuration=    12
   0.00000000  0.00000000  0.25000000
   0.33333334  0.66666669  0.25000000
graphene                                
           1
     2.445837    0.000000    0.000000
    -1.222918    2.118157    0.000000
    -0.225000    0.000000   15.000000
   C 
   2
Direct configuration=    13
   0.00000000  0.00000000  0.25000000
   0.33333334  0.66666669  0.25000000
graphene                                
           1
     2.445837    0.000000    0.000000
    -1.222918    2.118157    0.000000
     0.000000    0.000000   15.000000
   C 
   2
Direct configuration=    14
   0.00613287  0.00000000  0.25000000
   0.33333334  0.66666669  0.25000000
graphene                                
           1
     2.445837    0.000000    0.000000
    -1.222918    2.118157    0.000000
     0.000000    0.000000   15.000000
   C 
   2
Direct configuration=    15
  -0.00613287  0.00000000  0.25000000
   0.33333334  0.66666669  0.25000000
graphene                                
           1
     2.445837    0.000000    0.000000
    -1.222918    2.118157    0.000000
     0.000000    0.000000   15.000000
   C 
   2
Direct configuration=    16
   0.00000000  0.00000000  0.25100000
   0.33333334  0.66666669  0.25000000
graphene                                
           1
     2.445837    0.000000    0.000000
    -1.222918    2.118157    0.000000
     0.000000    0.000000   15.000000
   C 
   2
Direct configuration=    17
   0.00000000  0.00000000  0.24900000
   0.33333334  0.66666669  0.25000000
