LAMMPS (29 Oct 2020)
##lammps  #交联两种破坏模式模拟--碳纳米管撕裂
units           metal
boundary        s  p  s   #s代表非周期性边界条件，p代表周期性边界条件
processors      4 3 2
atom_style      atomic
read_data         cnt_tear.txt
Reading data file ...
  orthogonal box = (-105.82130 -10.708810 -80.000000) to (178.88790 42.948020 80.000000)
  4 by 3 by 2 MPI processor grid
  reading atoms ...
  4032 atoms
  read_data CPU = 0.012 seconds
mass    		*    12.011
pair_style        airebo 3.0 1 0
pair_coeff   * *  CH_tensile.airebo  C
Reading airebo potential file CH_tensile.airebo with DATE: 2011-10-25
neighbor        2.0 nsq
neigh_modify delay 0 every 1 check yes

timestep     0.0005    #时间步0.5fs
region 1 block INF -2.5. INF INF INF INF units box   #分区域和组
region 2 block 76.3. INF INF INF INF INF units box
region 3 block INF INF INF INF -1. 1. units box
region 4 block INF INF INF INF 21. 22. units box
group 1 region 1
88 atoms in group 1
group 2 region 2
132 atoms in group 2
group 3 region 3
1608 atoms in group 3
group 4 region 4
1600 atoms in group 4
group ld intersect 1 3    #区域分组--左下
44 atoms in group ld
group rd intersect 2 3    #区域分组--右下
66 atoms in group rd
group lu intersect 1 4    #区域分组--左上
44 atoms in group lu
group ru intersect 2 4    #区域分组--右上
66 atoms in group ru
group boundaryup union ru lu
110 atoms in group boundaryup
group gra1 type 1
4032 atoms in group gra1
group fixnvt subtract all boundaryup
3922 atoms in group fixnvt
compute gra1temp gra1 temp/com
compute atompe all pe/atom
compute atomstress all stress/atom NULL
compute upz 4 reduce ave z
compute downz 3 reduce ave z
variable disz equal c_upz-c_downz     #上下层石墨烯平均距离
variable rux  equal xcm(ru,x)         #右上区域石墨烯位置
variable vrux  equal vcm(ru,x)        #右上区域石墨烯速度
fix         1  all npt temp 300. 300. 0.05   y 0. 0. 0.5  drag 1.2
fix 2 ld  setforce 0.0 NULL 0.0    #左下及右下区域固定
fix 3 rd  setforce NULL NULL 0.0
fix 4 4  aveforce NULL NULL 0.0
thermo_style custom step temp pe etotal pyy ly v_rux v_vrux  v_disz
thermo           1000
dump            1 all custom 10000  cnt_tear.lammpstrj id type xs ys zs c_atompe c_atomstress[1] c_atomstress[2] c_atomstress[3]
dump_modify 1  sort id
run             100000
Neighbor list info ...
  update every 1 steps, delay 0 steps, check yes
  max neighbors/atom: 2000, page size: 100000
  master list distance cutoff = 12.2
  ghost atom cutoff = 12.2
  1 neighbor lists, perpetual/occasional/extra = 1 0 0
  (1) pair airebo, perpetual
      attributes: full, newton on, ghost
      pair build: full/nsq/ghost
      stencil: none
      bin: none
Per MPI rank memory allocation (min/avg/max) = 6.117 | 6.133 | 6.149 Mbytes
Step Temp PotEng TotEng Pyy Ly v_rux v_vrux v_disz 
       0            0   -30630.779   -30630.779   -4900.6534     53.65683    78.306653            0    21.554782 
    1000    324.80922   -30822.315   -30653.074   -141.16686    53.329355     78.20835   -2.3855181    22.433061 
    2000    316.76092   -30819.059   -30654.012    515.15959     53.41439    78.198107   -1.8322344    23.199834 
    3000    340.01378   -30824.847   -30647.684    1767.8735    53.287403    77.655258  -0.12122078     23.92051 
    4000    324.28481   -30826.396   -30657.428   -133.31226    53.321533    77.402222   -1.7718012    23.826049 
    5000    319.70759   -30826.983     -30660.4   -1247.8496    53.375279    77.414256   0.70876554    23.745181 
    6000     323.1107   -30833.298   -30664.942   -1512.2976    53.414589    77.414958    -1.559529    23.517634 
    7000    318.90357   -30832.325   -30666.161    493.16633    53.416407     77.81753 -0.047092742    23.270905 
    8000     314.5964    -30835.46   -30671.541   -626.55836    53.407192    77.816991  -0.63868963      23.4747 
    9000    315.72642   -30828.267   -30663.759    186.11557    53.385122    78.133992   0.29698959    23.701212 
   10000    319.08997   -30826.368   -30660.106   -1037.0268    53.426085    78.079402    1.1895504    23.810262 
   11000    325.02343   -30832.451   -30663.098   -2617.3526    53.435825    78.085206  -0.94942179    23.767247 
   12000    317.47728   -30834.795   -30669.375    625.19993    53.365442      77.7788   0.60318871    23.737477 
   13000    308.56276   -30837.214   -30676.438    1802.4609    53.380159    77.647892    -1.150736    23.849175 
   14000    301.32277    -30838.29   -30681.287    2080.1062    53.369379    77.583828  -0.81884752    23.916013 
   15000    319.13822   -30837.423   -30671.137    228.77063    53.390794    77.606499  -0.46450615    23.933785 
   16000    310.58251   -30840.743   -30678.914   -30.537456    53.395462    77.656128   -1.2722174    23.850914 
   17000    308.15888   -30835.593   -30675.027      426.727    53.396614     77.73954   0.60188736    23.826686 
   18000    333.52009    -30833.12    -30659.34    259.51451    53.385873    77.833522  -0.46553778    23.795831 
   19000    317.42112   -30837.475   -30672.084   -829.93759    53.416671    77.964396    1.0246438    23.731746 
   20000     326.2649   -30829.126   -30659.127    348.92708    53.399098    77.950708   0.98284626    23.726229 
   21000    331.20057   -30825.274   -30652.703    997.56752    53.390848    78.008542  -0.19971179    23.728776 
   22000    332.99641    -30831.22   -30657.713    870.97109    53.399221    77.904364  0.067722198    23.826731 
   23000    316.39396   -30827.429   -30662.572    220.96027    53.418258    77.888327  -0.84694183    23.830577 
   24000     320.7152   -30829.132   -30662.024   -347.14559    53.399963    77.768021   0.68375779    23.808834 
   25000    316.15783   -30834.853    -30670.12    647.81165    53.392225    77.756791   0.80259306     23.74361 
   26000    309.52375   -30831.951   -30670.674    1215.4359    53.405147    77.775976   0.16225347    23.726809 
   27000    306.18436   -30831.393   -30671.856    1077.4436    53.403129    77.807005   0.52803618    23.749686 
   28000    312.44232   -30834.167    -30671.37    945.71334    53.396726    77.929671   -0.5621149    23.732145 
   29000    316.11858    -30829.87   -30665.157   -3.4127176    53.389855     77.92309 -0.056311076    23.745765 
   30000    313.78652    -30836.54   -30673.043   -164.04779    53.406611     77.97864    1.3623553    23.713146 
   31000    308.87203   -30826.175   -30665.238    441.42291    53.417445    77.914162   0.06309104     23.71329 
   32000    315.61872   -30836.205   -30671.753   -804.61646    53.424062    77.888619   0.59464981    23.714538 
   33000    314.27299   -30817.338   -30653.587   -157.68217    53.442308    77.850031  -0.49336297    23.702171 
   34000    315.04658   -30849.942   -30685.788    1657.9524    53.358049    77.848939   -1.1920958    23.714164 
   35000    307.52657   -30846.015   -30685.779    6.5576823    53.395074    77.869603    -1.315582    23.736101 
   36000    302.49026   -30831.521   -30673.909    276.20148    53.397508    77.874038  -0.35602087    23.775022 
   37000    322.35555   -30836.366   -30668.403   -43.024961    53.398074    77.858661   0.83206068    23.765706 
   38000    316.12712   -30833.961   -30669.244   -852.67295    53.429534    77.861238    1.2744955    23.753679 
   39000    311.15997   -30841.372   -30679.243     1032.049    53.386944    77.863839   0.76743448    23.754361 
   40000    316.32009   -30838.609   -30673.791    147.51462    53.395547    77.874871   -1.4761021    23.740402 
   41000    318.92201   -30826.344    -30660.17    896.45124     53.39361    77.906161   -1.4307178    23.754994 
   42000    308.07467    -30836.89   -30676.369    1027.6136    53.386365    77.896808   0.79530497    23.746423 
   43000    306.69251    -30847.76   -30687.958    1069.6361    53.356542    77.871356    0.2205165    23.753281 
   44000    326.37519    -30828.37   -30658.313   -188.18073    53.425315    77.883653    1.0917095    23.767922 
   45000     313.9846   -30843.632   -30680.031    91.787609    53.419778    77.904298   0.90593416    23.745261 
   46000    306.51502   -30847.212   -30687.503   -1284.4532    53.431574    77.855401      0.28651    23.746818 
   47000    312.65874   -30835.445   -30672.535   -1732.6378    53.436545    77.850917    1.1240601    23.758143 
   48000    316.47245   -30847.467    -30682.57    1422.0762    53.363863    77.810138   0.16329139    23.771932 
   49000    319.70065    -30837.31   -30670.731     393.0946    53.389471    77.846137  -0.56214278    23.766172 
   50000      308.762   -30844.207   -30683.327   -295.11705    53.413806    77.857207  0.052569535    23.762858 
   51000    313.63859   -30843.574   -30680.154   -365.80758     53.40053    77.883873   0.12000873     23.76628 
   52000    325.06437    -30845.21   -30675.836    -382.2966    53.415048    77.905932    0.6914128    23.757447 
   53000    318.01819   -30826.479   -30660.777   -1478.1424    53.444073    77.907381  -0.52165544    23.746833 
   54000    319.26363   -30833.784   -30667.432   -143.26744    53.414749    77.924977   0.15338907    23.758616 
   55000    314.49632   -30825.322   -30661.455    876.69292    53.400328    77.881462   0.14649609    23.761765 
   56000    318.32237   -30847.833   -30681.972    568.77434    53.390428    77.874232   -0.3059417    23.744131 
   57000    309.00017   -30844.997   -30683.993    195.63488    53.402649    77.893206  -0.79539065    23.722856 
   58000    317.43812   -30845.091   -30679.691    1896.8893    53.347112    77.864693   -0.7774546     23.74472 
   59000    318.14191   -30841.954   -30676.187   -843.96345    53.415791    77.871064  -0.37381255    23.740597 
   60000    317.30699   -30823.516   -30658.184    778.30443     53.39601    77.892187    1.1457379    23.758401 
   61000    318.17266   -30823.439   -30657.656    893.45376    53.380115    77.854955   0.86806756    23.775181 
   62000    310.60179   -30835.894   -30674.056    165.23553     53.40583     77.87442  -0.93953983    23.774851 
   63000    319.94963   -30841.783   -30675.074   -1854.8856    53.440416    77.894041  0.017705347    23.753372 
   64000      318.122   -30839.914   -30674.158   -324.29363    53.427501    77.937429   0.18938375    23.748028 
   65000    317.39676   -30844.248   -30678.869     152.9699    53.395553    77.941798   0.18005109    23.736138 
   66000    309.31685   -30842.799   -30681.631    1143.2235    53.365572    77.936573   0.43135687      23.7468 
   67000    311.79922   -30837.817   -30675.354    51.250129    53.397157    77.881159     1.054385    23.754755 
   68000    319.05378    -30843.94   -30677.697    855.53251    53.408339    77.854739   0.71246996     23.75578 
   69000    319.19385   -30848.404   -30682.089   -747.85701    53.422319    77.820362   0.21251609    23.757787 
   70000    323.66268   -30844.271   -30675.627     233.0174    53.419707    77.816603   0.25179312     23.74927 
   71000    313.87967   -30838.676   -30675.129   -23.592585     53.40622    77.859529  -0.20902557    23.749668 
   72000     308.0724    -30840.57   -30680.049   -579.94025    53.409871     77.85609  -0.63989562    23.762768 
   73000    320.78478     -30838.4   -30671.255    1137.4123    53.377733    77.890897    0.1778051    23.765424 
   74000     305.4119   -30837.905   -30678.771   -286.83972    53.399585     77.87686  -0.32766862    23.760627 
   75000    307.78928   -30839.172   -30678.799    760.88187    53.397366    77.911487   0.52438654    23.757657 
   76000    322.38486   -30836.768    -30668.79   -796.74581    53.412414    77.906707  -0.13186917    23.748793 
   77000    326.45493   -30836.448   -30666.349   -553.62225    53.427192    77.890553  -0.66987105    23.746241 
   78000    316.30827    -30844.82   -30680.009    689.73674    53.389293    77.898505   0.89736486    23.743225 
   79000    314.70502   -30843.994   -30680.018   -726.83877    53.405467    77.830106  -0.37569145      23.7525 
   80000    319.06226    -30846.01   -30679.763   -404.45363    53.404544    77.893594  -0.59737913    23.764369 
   81000    315.87531   -30847.136    -30682.55   -1022.6278     53.42989    77.850133   0.30794288     23.75662 
   82000    311.65013   -30840.653   -30678.268    152.36452    53.377205    77.849165  -0.55288999    23.761793 
   83000    319.71235   -30836.788   -30670.203   -141.72493    53.408822    77.872392    0.2219587    23.737481 
   84000    320.66671   -30837.716   -30670.634   -1040.3025    53.426952    77.876221  0.082545682     23.75602 
   85000    319.08008   -30842.932   -30676.676    182.28537    53.410196    77.876883   -1.1694971    23.740329 
   86000    327.18912   -30848.831    -30678.35    1033.1627    53.391954    77.886424   -1.0700675    23.749134 
   87000    313.27353   -30846.857   -30683.627    564.64155    53.373258    77.897287   0.62099992    23.753636 
   88000    309.60008   -30849.199   -30687.883     340.0218    53.406629    77.861746    1.0830548    23.759546 
   89000    317.15124   -30833.063   -30667.812   -493.88746    53.430831    77.839188   0.60598229    23.763821 
   90000    324.66078   -30827.982   -30658.818    -41.14973    53.396129    77.928084   0.43469557    23.770985 
   91000    319.41099   -30842.083   -30675.654   -1194.1397    53.412549    77.883008  -0.85433414    23.773494 
   92000    315.78066    -30840.76   -30676.223   -1124.3785    53.401628    77.886078   0.21038721    23.755774 
   93000    311.28262   -30849.163    -30686.97    26.301041    53.381457    77.892461   -1.1071176     23.73153 
   94000    315.29471   -30851.667   -30687.384    912.09931    53.388073    77.876011 -0.038326722     23.74322 
   95000    317.70745   -30847.641     -30682.1   -117.22182    53.379646    77.884493 -0.041794189     23.74353 
   96000    309.61082   -30845.191   -30683.869   -137.30031    53.386949    77.845755  -0.11234114    23.748081 
   97000    313.64631   -30841.428   -30678.004    9.2920657    53.411858     77.87325  -0.22746817     23.76006 
   98000     304.0434   -30837.709   -30679.288    1559.7527    53.362498    77.852348   0.10315796    23.755994 
   99000     304.3244   -30850.489   -30691.922    668.86159     53.36645    77.776499   0.22396711    23.750436 
  100000    307.97859   -30848.023   -30687.552   -23.840898     53.38316    77.839581  -0.14518812      23.7412 
Loop time of 247.366 on 24 procs for 100000 steps with 4032 atoms

Performance: 17.464 ns/day, 1.374 hours/ns, 404.259 timesteps/s
98.5% CPU use with 24 MPI tasks x no OpenMP threads

MPI task timing breakdown:
Section |  min time  |  avg time  |  max time  |%varavg| %total
---------------------------------------------------------------
Pair    | 121.62     | 159.81     | 237.15     | 275.3 | 64.60
Neigh   | 0.14657    | 0.24489    | 0.37743    |  13.9 |  0.10
Comm    | 4.429      | 78.258     | 119.65     | 387.8 | 31.64
Output  | 0.020842   | 0.020897   | 0.02181    |   0.1 |  0.01
Modify  | 4.5002     | 8.189      | 18.657     | 206.0 |  3.31
Other   |            | 0.846      |            |       |  0.34

Nlocal:        168.000 ave         225 max         139 min
Histogram: 3 13 0 0 0 0 3 2 2 1
Nghost:        1216.17 ave        1522 max         889 min
Histogram: 4 2 1 5 0 0 3 1 3 5
Neighs:        0.00000 ave           0 max           0 min
Histogram: 24 0 0 0 0 0 0 0 0 0
FullNghs:      31742.8 ave       49508 max       22735 min
Histogram: 8 1 7 0 0 1 3 2 1 1

Total # of neighbors = 761826
Ave neighs/atom = 188.94494
Neighbor list builds = 48
Dangerous builds = 0
unfix 1
unfix 4
fix         1  fixnvt nvt temp 300. 300. 0.05
fix  5 boundaryup nve
fix  6  boundaryup aveforce NULL NULL 0.0
velocity ru set 0.1 0.0 0.0 sum no units box   #拉右上区域石墨烯，速度10 m/s
velocity lu set NULL NULL 0.0 sum no units box
fix 4 ru  setforce 0. 0.0 NULL
thermo_style custom step temp pe etotal pyy ly c_gra1temp v_disz  v_rux v_vrux f_4[1]
thermo           1000
run 500000
Per MPI rank memory allocation (min/avg/max) = 6.117 | 6.133 | 6.150 Mbytes
Step Temp PotEng TotEng Pyy Ly c_gra1temp v_disz v_rux v_vrux f_4[1] 
  100000    302.84579   -30848.023   -30690.226   -61.549476     53.38316    302.84213      23.7412    77.839581          0.1   -6.7124807 
  101000     292.6554   -30902.785   -30750.298   -9883.1768     53.38316    291.43922    24.391571    77.889581          0.1   -10.002948 
  102000    299.28601   -30906.824   -30750.881   -8633.5826     53.38316    298.45473    25.319139    77.939581          0.1    1.0721652 
  103000    286.72017    -30902.84   -30753.445   -13140.402     53.38316    286.10033    26.352458    77.989581          0.1   0.40221636 
  104000    286.47053   -30902.593   -30753.329   -9728.3282     53.38316    286.17539    26.551704    78.039581          0.1    5.9960814 
  105000    297.41184   -30901.193   -30746.227   -10595.842     53.38316    296.63167    26.305479    78.089581          0.1    4.1074357 
  106000    290.23545   -30906.203   -30754.976   -7625.2019     53.38316    290.04703    25.874377    78.139581          0.1   0.34892275 
  107000    293.08402   -30907.632   -30754.922   -7720.3677     53.38316    292.79457    25.419333    78.189581          0.1    4.7783813 
  108000    298.34587   -30903.989   -30748.537   -8601.6035     53.38316    297.84136    25.033289    78.239581          0.1    -4.087522 
  109000    294.66629   -30903.594   -30750.058   -10347.935     53.38316    294.02691    24.972635    78.289581          0.1    6.2592246 
  110000    294.08422    -30904.23   -30750.998   -11200.111     53.38316    293.33902    25.209652    78.339581          0.1    10.309608 
  111000    298.71148   -30900.793    -30745.15   -9958.0138     53.38316    298.21962    25.555366    78.389581          0.1    -6.171118 
  112000    300.11969   -30904.451   -30748.074   -10729.813     53.38316     296.3429    25.872696    78.439581          0.1   -2.8328271 
  113000    292.72354   -30901.362   -30748.839   -8563.4617     53.38316    292.52029     25.98032    78.489581          0.1    2.7033193 
  114000    286.06272   -30905.402    -30756.35   -10939.095     53.38316    283.93911    26.078992    78.539581          0.1    4.2710728 
  115000    295.86421   -30903.883   -30749.724   -11401.771     53.38316    295.60054    25.997345    78.589581          0.1   -3.3827205 
  116000    293.78002    -30904.33   -30751.257   -9621.3827     53.38316    293.51721    25.571217    78.639581          0.1   -4.3398986 
  117000    289.57956   -30900.838   -30749.953   -8487.8354     53.38316    288.45551     25.05876    78.689581          0.1   -9.9680561 
  118000    296.96098   -30901.502   -30746.771   -9217.5685     53.38316      296.402    24.851557    78.739581          0.1    3.7718926 
  119000    288.64501   -30906.073   -30755.676   -10961.466     53.38316    287.77553    25.233608    78.789581          0.1   0.14058647 
  120000    293.28646   -30904.136   -30751.319   -10553.846     53.38316    292.74268    25.574522    78.839581          0.1    4.4288638 
  121000    288.35984   -30900.037   -30749.787   -8809.9764     53.38316    287.71452    25.727061    78.889581          0.1    4.3218652 
  122000    292.20802   -30901.221   -30748.966    -10014.03     53.38316    291.12298    25.759655    78.939581          0.1    1.9313312 
  123000    298.14963   -30902.709   -30747.358    -9737.418     53.38316    297.84469    25.585154    78.989581          0.1   -4.5798666 
  124000    298.14631   -30903.333   -30747.985   -8393.5037     53.38316     297.9482    25.115504    79.039581          0.1   0.77215554 
  125000    288.69466   -30901.396   -30750.973   -9301.5222     53.38316    288.59271    24.842675    79.089581          0.1   -3.9119153 
  126000     294.9687   -30902.811   -30749.118   -7502.6969     53.38316    294.90262     24.96978    79.139581          0.1    2.1859088 
  127000    294.70283   -30904.565    -30751.01   -9674.6448     53.38316    294.40202    25.254943    79.189581          0.1   -5.7898939 
  128000    294.25134   -30898.508   -30745.189   -11127.899     53.38316    293.64949    25.389914    79.239581          0.1     4.896664 
  129000    291.43321   -30902.462   -30750.611   -10047.043     53.38316    290.86785    25.305855    79.289581          0.1   -12.313961 
  130000    296.78168   -30899.923   -30745.286   -9626.9782     53.38316    296.58629    25.192375    79.339581          0.1   -6.1794355 
  131000    299.56301   -30899.901   -30743.815   -9223.8704     53.38316    299.34609    25.136544    79.389581          0.1  -0.94218026 
  132000     295.4812   -30903.311   -30749.351    -8360.889     53.38316    295.28448    25.287279    79.439581          0.1    1.4553992 
  133000    299.50187   -30896.649   -30740.594   -8472.7472     53.38316     299.1949    25.461381    79.489581          0.1    1.9864131 
  134000    292.26453   -30900.387   -30748.103    -10001.27     53.38316    291.16218    25.357265    79.539581          0.1   -5.6158853 
  135000    296.23307   -30901.008   -30746.657    -8361.412     53.38316    295.53986    25.178945    79.589581          0.1   -1.2497635 
  136000    294.28038   -30896.303   -30742.968   -10055.351     53.38316    293.94811    25.137143    79.639581          0.1    -4.272447 
  137000    290.08016    -30901.26   -30750.114     -8096.49     53.38316    289.73522    25.282951    79.689581          0.1   0.53593876 
  138000    292.00889   -30901.397   -30749.247   -10063.741     53.38316    291.82216    25.398484    79.739581          0.1   -11.472859 
  139000    293.12568   -30898.639   -30745.907   -9575.5753     53.38316    293.08696    25.463686    79.789581          0.1    8.2279836 
  140000    284.19233   -30900.731   -30752.654   -9008.8618     53.38316    283.93577    25.331397    79.839581          0.1   -13.886892 
  141000    299.26766    -30899.39   -30743.457   -8394.7022     53.38316    299.21192    25.156646    79.889581          0.1   -1.1843985 
  142000    295.95648   -30897.408   -30743.201   -8773.4856     53.38316    295.88858    25.067672    79.939581          0.1    -5.738681 
  143000     294.5706   -30899.636    -30746.15   -8709.4252     53.38316      293.915    25.115251    79.989581          0.1   -4.7358355 
  144000    291.35772    -30901.26   -30749.448   -9436.0519     53.38316    290.94609    25.236739    80.039581          0.1   0.11495227 
  145000    297.92399   -30898.036   -30742.803   -9017.0157     53.38316    297.42047    25.275832    80.089581          0.1   -2.8322351 
  146000    291.14851   -30899.351   -30747.649   -8900.3519     53.38316     290.3199    25.314382    80.139581          0.1   -8.7344653 
  147000    303.36047    -30894.99   -30736.925   -8644.0284     53.38316    302.40884     25.19418    80.189581          0.1   -9.9937531 
  148000    293.22906   -30897.459   -30744.673   -7947.5234     53.38316    292.59292    24.911054    80.239581          0.1   -12.667934 
  149000    300.34184   -30897.719   -30741.226   -8465.3283     53.38316    299.92788    24.618205    80.289581          0.1   -4.7675947 
  150000    297.20249    -30898.47   -30743.613   -6333.8798     53.38316    296.38898    24.536731    80.339581          0.1   -8.0058509 
  151000    294.89338    -30897.46   -30743.807   -8629.4036     53.38316     294.6926    24.824424    80.389581          0.1   -3.5941287 
  152000    288.96093   -30897.954   -30747.392   -8702.0973     53.38316    288.74578    25.103065    80.439581          0.1   -3.8760932 
  153000    296.91035   -30899.092   -30744.388   -9910.8617     53.38316    296.55328    25.165759    80.489581          0.1   -7.5873902 
  154000    293.11047   -30894.994    -30742.27   -8673.6917     53.38316    292.46716    24.899899    80.539581          0.1    4.6839023 
  155000    295.29469   -30896.099   -30742.237   -8624.4392     53.38316    295.21147    24.672412    80.589581          0.1   -11.853372 
  156000    296.59224   -30897.402   -30742.864   -8680.7383     53.38316    296.10215    24.582566    80.639581          0.1   -7.7206875 
  157000    293.02095   -30894.977   -30742.299    -8933.885     53.38316    292.83326    24.564326    80.689581          0.1    1.8082018 
  158000    294.38507   -30901.419    -30748.03   -9564.8897     53.38316    294.21466     24.64679    80.739581          0.1   -8.2812689 
  159000    294.82762   -30895.301   -30741.682   -8888.4471     53.38316     294.3106    24.712495    80.789581          0.1   -8.9310282 
  160000    292.94674   -30899.314   -30746.674   -10323.576     53.38316    292.38431    24.873565    80.839581          0.1    1.3863417 
  161000    297.54126   -30894.638   -30739.605   -7634.6753     53.38316    297.14021    24.805517    80.889581          0.1   -1.6568772 
  162000     289.1045   -30892.402   -30741.764   -9652.1977     53.38316     288.8358     24.95141    80.939581          0.1   -9.0912589 
  163000    298.30775   -30894.763    -30739.33   -7710.5423     53.38316    297.95613    24.877562    80.989581          0.1   -5.9856011 
  164000    292.68719   -30891.779   -30739.275   -10437.888     53.38316     292.4127    24.886295    81.039581          0.1   -9.1356363 
  165000    290.06588   -30892.158    -30741.02   -9036.2093     53.38316    289.52102    24.761207    81.089581          0.1    1.4313205 
  166000     290.2024   -30888.391   -30737.182   -8904.2792     53.38316    290.19361    24.680859    81.139581          0.1   -8.5335609 
  167000    294.75768   -30891.983     -30738.4   -7237.6474     53.38316    294.59408    24.455951    81.189581          0.1    7.6961958 
  168000    296.42836   -30894.466   -30740.013   -7982.0879     53.38316    296.34786     24.44347    81.239581          0.1  -0.44189224 
  169000    301.12819   -30892.382    -30735.48   -8066.9367     53.38316    300.20018    24.564207    81.289581          0.1   -1.8060345 
  170000     293.3125   -30894.617   -30741.788   -10296.968     53.38316    293.06028    24.822803    81.339581          0.1   -6.2365991 
  171000    294.68902   -30893.983   -30740.436   -8778.9416     53.38316     294.3659    24.815137    81.389581          0.1    3.3972744 
  172000    296.05355   -30891.958     -30737.7    -7628.886     53.38316    295.52521     24.66974    81.439581          0.1   -2.5006938 
  173000    291.98757   -30890.398   -30738.259   -8993.5324     53.38316    291.31554    24.464278    81.489581          0.1   -7.3140195 
  174000    290.67253   -30895.708   -30744.254   -8542.5155     53.38316    290.04455    24.363989    81.539581          0.1   -4.8529056 
  175000    293.08777   -30890.939   -30738.226   -8051.7669     53.38316    292.49467    24.240366    81.589581          0.1  -0.48849093 
  176000    299.89186   -30890.454   -30734.196   -7942.1914     53.38316    299.65426    24.094196    81.639581          0.1   -1.3217239 
  177000    294.24839   -30893.765   -30740.448    -8675.337     53.38316    293.90598    24.046721    81.689581          0.1   -1.3425263 
  178000    295.97459   -30892.579   -30738.362   -9459.5307     53.38316    295.08264     24.09111    81.739581          0.1   -6.3972926 
  179000    300.33559   -30893.338   -30736.849   -8806.5466     53.38316    300.23178    24.158263    81.789581          0.1    -5.827364 
  180000    294.57566   -30888.428    -30734.94   -9234.8663     53.38316    294.38203    24.261428    81.839581          0.1   -5.9056734 
  181000    291.24357   -30895.473   -30743.722   -8303.7668     53.38316    291.09125    24.336226    81.889581          0.1   -1.2427931 
  182000    288.03543   -30887.692   -30737.612     -8676.84     53.38316    287.83269    24.279417    81.939581          0.1   -8.1240537 
  183000    295.48093    -30891.97   -30738.011   -7914.1021     53.38316    295.32248    24.007031    81.989581          0.1   -12.835284 
  184000    293.17117   -30890.577   -30737.821   -8174.5957     53.38316    292.90375    23.764205    82.039581          0.1   -10.332649 
  185000    290.08878     -30894.9    -30743.75   -8847.2615     53.38316        289.4    23.739239    82.089581          0.1   -10.261532 
  186000    293.79326   -30894.699   -30741.619   -8410.9131     53.38316    293.42437    23.876092    82.139581          0.1   -5.7093866 
  187000    297.72168   -30891.492   -30736.364     -7737.45     53.38316     297.2508    24.121561    82.189581          0.1   -6.5522628 
  188000    290.34233    -30890.39   -30739.108   -9344.7067     53.38316    290.23106    24.441257    82.239581          0.1    7.2006655 
  189000    292.03706    -30887.39   -30735.225   -9437.9279     53.38316    291.69754    24.477947    82.289581          0.1   -19.059185 
  190000    295.12627   -30885.406   -30731.631   -10105.095     53.38316    295.08564    24.263194    82.339581          0.1   -10.928443 
  191000    297.64327   -30891.153   -30736.067   -9087.4792     53.38316    297.56476    23.788886    82.389581          0.1   -6.7852911 
  192000    293.20016   -30890.006   -30737.235   -10320.713     53.38316    293.13456    23.513143    82.439581          0.1   -1.1729671 
  193000    296.24713   -30889.195   -30734.836   -8269.3127     53.38316    296.15787    23.544609    82.489581          0.1   -2.0049896 
  194000    294.27195   -30891.144   -30737.814   -8638.2654     53.38316     294.1543     23.84498    82.539581          0.1    -8.802485 
  195000    288.04094   -30890.114   -30740.031   -8721.6213     53.38316    287.79464    24.009183    82.589581          0.1   -12.949112 
  196000    292.80731   -30888.212   -30735.646   -8782.9387     53.38316    292.60516    24.065099    82.639581          0.1   -4.4410952 
  197000    294.23201   -30889.289    -30735.98   -10478.173     53.38316    293.60606    23.903139    82.689581          0.1   -6.5859912 
  198000    290.76128   -30888.967   -30737.467   -9864.9221     53.38316    290.29567    23.725795    82.739581          0.1   -4.2491318 
  199000    291.30633   -30890.324    -30738.54   -9363.6131     53.38316     290.6995    23.664128    82.789581          0.1   -7.4351646 
  200000    290.45209   -30891.161   -30739.821   -9273.2485     53.38316    289.99122    23.539652    82.839581          0.1   -19.714745 
  201000    296.51555    -30889.98   -30735.481   -8703.3723     53.38316    296.31147    23.353701    82.889581          0.1   -7.3801363 
  202000    289.07508   -30888.498   -30737.876    -8754.832     53.38316    288.88998    23.160575    82.939581          0.1   -2.3771253 
  203000    300.42942   -30888.946   -30732.408   -8175.7763     53.38316     299.8002    23.298357    82.989581          0.1   -14.358046 
  204000    295.06709   -30885.667   -30731.923   -9180.1089     53.38316    294.79734    23.471106    83.039581          0.1   -4.7376148 
  205000    293.39312   -30884.092    -30731.22   -9518.4062     53.38316    293.35726    23.548062    83.089581          0.1    -15.57444 
  206000    299.87102   -30890.047     -30733.8   -9296.6171     53.38316    299.83899    23.417794    83.139581          0.1    -3.877798 
  207000    285.76058   -30888.664   -30739.769   -8390.9045     53.38316    285.65263    23.249643    83.189581          0.1   -11.631494 
  208000    294.00108   -30887.029    -30733.84   -8148.1381     53.38316    293.91929    23.121907    83.239581          0.1   -6.8911832 
  209000    297.57641   -30889.477   -30734.425   -7664.2541     53.38316    297.21547     23.07922    83.289581          0.1   -11.992609 
  210000     297.7697   -30890.225   -30735.073   -9403.7942     53.38316    297.57057    23.086107    83.339581          0.1   -11.437096 
  211000    293.33545   -30887.002    -30734.16   -9687.4169     53.38316    293.08329    23.195237    83.389581          0.1   -4.2968837 
  212000    291.21897   -30885.166   -30733.427   -10605.304     53.38316    291.04171    23.421824    83.439581          0.1   -16.973296 
  213000    289.24364   -30884.129   -30733.419   -10486.482     53.38316    288.95018    23.417067    83.489581          0.1   -12.179465 
  214000    296.20991   -30883.621   -30729.281   -9806.2176     53.38316    296.13456    23.250715    83.539581          0.1   -13.205513 
  215000    285.13667   -30881.863   -30733.293   -7950.8412     53.38316    285.12146    23.108914    83.589581          0.1   -10.064546 
  216000    296.58852   -30884.381   -30729.844   -8949.0517     53.38316     296.4386    23.128617    83.639581          0.1   -11.022346 
  217000     290.5385   -30883.855   -30732.471   -9486.3641     53.38316    290.48684    23.076141    83.689581          0.1   -3.5175562 
  218000    297.45788   -30883.436   -30728.447   -10248.391     53.38316    297.20635    22.984533    83.739581          0.1   -15.100458 
  219000    297.23097   -30881.349   -30726.478   -9743.4125     53.38316    296.56321    22.881192    83.789581          0.1   -5.0069703 
  220000    293.67976   -30880.866   -30727.844   -9990.4123     53.38316    293.39055     22.88889    83.839581          0.1   -8.3913154 
  221000    290.31077   -30880.354   -30729.089   -9748.0325     53.38316    290.11863    22.874784    83.889581          0.1   -1.3183345 
  222000    300.58522   -30881.547   -30724.928   -8650.2325     53.38316    300.31934     22.95847    83.939581          0.1   -16.480921 
  223000     290.7911   -30880.995   -30729.479   -9806.9877     53.38316    290.29748    22.981038    83.989581          0.1   -9.3668456 
  224000    294.35696   -30881.521   -30728.147   -9707.2366     53.38316    293.78197    22.874233    84.039581          0.1   -10.483611 
  225000    297.55059   -30881.266   -30726.228   -10183.318     53.38316    297.17593    22.643858    84.089581          0.1   -15.470976 
  226000    290.09868    -30880.82   -30729.665   -8807.9401     53.38316    289.88754    22.402718    84.139581          0.1   -20.277127 
  227000    299.84745   -30877.322   -30721.088   -10235.193     53.38316     299.5875    22.350345    84.189581          0.1   -13.877381 
  228000    295.45789   -30879.298    -30725.35   -10050.616     53.38316    295.27388    22.416229    84.239581          0.1   -10.359617 
  229000    299.70716   -30876.739   -30720.578   -10383.267     53.38316    299.51338    22.535418    84.289581          0.1   -5.6814875 
  230000    290.93782    -30876.32   -30724.728   -10596.126     53.38316    290.92816    22.599206    84.339581          0.1   -9.5638316 
  231000    293.97895   -30872.762   -30719.585   -9162.5915     53.38316    293.93395    22.451447    84.389581          0.1   -6.9306262 
  232000    289.28013    -30873.32   -30722.591    -10160.58     53.38316    289.20085    22.310763    84.439581          0.1   -22.353164 
  233000    295.23473   -30872.517   -30718.686   -10294.711     53.38316    295.15441    22.219842    84.489581          0.1   -11.051431 
  234000    284.23823    -30874.72   -30726.618    -11022.02     53.38316    284.11301     22.24331    84.539581          0.1   -11.769843 
  235000    302.13498    -30873.11   -30715.683   -10838.206     53.38316    301.83821    22.309538    84.589581          0.1   -4.4172053 
  236000    291.54944   -30873.936   -30722.024   -10680.005     53.38316     291.2603    22.323592    84.639581          0.1    -19.69961 
  237000    294.39409   -30868.903   -30715.509   -9654.7084     53.38316     293.8945    22.312163    84.689581          0.1   -14.890023 
  238000    289.51056   -30871.075   -30720.226   -9874.2317     53.38316    289.43901    22.353985    84.739581          0.1   -9.6757546 
  239000    295.98354   -30872.574   -30718.353   -9426.1511     53.38316    295.96359    22.375743    84.789581          0.1   -6.0150734 
  240000    297.29809   -30872.852   -30717.946    -10133.91     53.38316    297.29795    22.276849    84.839581          0.1   -11.527017 
  241000    292.16924   -30872.495   -30720.261   -11651.371     53.38316    292.11221    22.189635    84.889581          0.1   -21.736654 
  242000    303.44254   -30872.278    -30714.17   -10438.757     53.38316    303.34663    22.020758    84.939581          0.1   -15.850164 
  243000     288.6658   -30869.136   -30718.727   -9954.3489     53.38316    288.54535    21.979911    84.989581          0.1   -7.3100866 
  244000    302.11818   -30870.486   -30713.068   -10362.093     53.38316    301.91886     21.98485    85.039581          0.1   -5.4376856 
  245000    293.11174   -30870.805    -30718.08   -10414.232     53.38316     292.8221    22.029324    85.089581          0.1   -7.8529312 
  246000     302.7535   -30869.497   -30711.748   -10353.684     53.38316    302.33658     22.02506    85.139581          0.1   -10.428048 
  247000    298.82133   -30873.722   -30718.022   -11387.198     53.38316    298.31597    22.035929    85.189581          0.1   -3.8344171 
  248000    295.70117   -30868.099   -30714.025    -10670.68     53.38316    295.31091    21.905202    85.239581          0.1   -7.5003509 
  249000    291.50274   -30868.462   -30716.575   -10942.614     53.38316    291.18157    21.701362    85.289581          0.1   -8.6102524 
  250000    296.82191   -30866.461   -30711.802    -10337.51     53.38316     296.6231    21.559414    85.339581          0.1   -7.4427108 
  251000    293.15303   -30865.586    -30712.84   -10780.207     53.38316    292.90989    21.467723    85.389581          0.1   -11.806048 
  252000    292.28507   -30865.521   -30713.226   -9675.0597     53.38316    292.16866    21.442126    85.439581          0.1   -14.942956 
  253000      296.578   -30864.038   -30709.507   -10966.073     53.38316     296.3881    21.366947    85.489581          0.1   -13.408848 
  254000    293.22953   -30862.325   -30709.538   -9511.6171     53.38316    292.95525    21.361112    85.539581          0.1   -20.095438 
  255000    288.66834   -30864.303   -30713.893   -10765.513     53.38316    288.64861    21.437949    85.589581          0.1   -14.939731 
  256000    296.41975   -30860.632   -30706.183   -9932.8159     53.38316    296.31831    21.570076    85.639581          0.1   -18.057891 
  257000    289.65806   -30863.788   -30712.862   -11573.988     53.38316    289.47302    21.568107    85.689581          0.1   -19.261491 
  258000    295.71407   -30860.268   -30706.187   -9921.0528     53.38316     295.4952     21.49713    85.739581          0.1     -17.6119 
  259000    292.40066     -30859.4   -30707.046   -11164.597     53.38316    292.21252    21.332558    85.789581          0.1   -26.026016 
  260000    295.22961   -30859.216   -30705.387   -11047.228     53.38316    295.08209    21.207703    85.839581          0.1   -8.4434082 
  261000    298.48013   -30856.061   -30700.538   -11097.218     53.38316    298.45422    21.143925    85.889581          0.1   -11.544621 
  262000    295.54862    -30859.17   -30705.175   -12187.548     53.38316    295.54691    21.305708    85.939581          0.1   -9.7705593 
  263000    293.57921   -30855.898   -30702.929   -12054.018     53.38316    293.42713    21.432173    85.989581          0.1   -17.789731 
  264000    297.29732   -30856.824   -30701.918   -11172.636     53.38316    297.20537    21.390175    86.039581          0.1     -16.4027 
  265000    291.54472   -30857.078   -30705.169   -10916.123     53.38316    291.41399    21.217893    86.089581          0.1   -22.033037 
  266000    300.19837   -30857.518     -30701.1   -10691.956     53.38316    300.03693    21.011065    86.139581          0.1   -6.7379059 
  267000     299.3926   -30855.051   -30699.053   -9854.4388     53.38316    299.06307    21.042904    86.189581          0.1   -19.380977 
  268000    295.55139   -30857.301   -30703.305   -11546.397     53.38316    295.07716    21.107045    86.239581          0.1   -17.587927 
  269000    287.36668   -30852.554   -30702.822   -11562.665     53.38316    286.78367    21.054264    86.289581          0.1   -13.157286 
  270000     294.5196   -30854.774   -30701.315   -12018.119     53.38316    293.82944    20.962067    86.339581          0.1   -14.814068 
  271000     294.5936    -30854.65   -30701.152   -12582.599     53.38316    293.71876    20.810263    86.389581          0.1   -11.620373 
  272000    287.12171   -30853.912   -30704.308   -11459.104     53.38316    286.82917     20.63477    86.439581          0.1   -17.803785 
  273000    295.65284    -30852.19   -30698.141   -11390.436     53.38316    295.36523    20.619048    86.489581          0.1   -7.3242074 
  274000    289.77889   -30854.696   -30703.707   -11469.958     53.38316    289.48218    20.653552    86.539581          0.1   -12.431268 
  275000    302.27037   -30852.019   -30694.521   -11505.204     53.38316    302.15702     20.62558    86.589581          0.1   -19.296025 
  276000     295.7371   -30848.365   -30694.272   -11628.732     53.38316    295.63926    20.452227    86.639581          0.1   -23.534818 
  277000    289.45556   -30848.419   -30697.599   -12645.829     53.38316    289.39243    20.360987    86.689581          0.1   -7.0273336 
  278000    299.43439   -30845.547   -30689.528    -12845.83     53.38316    299.38342    20.379299    86.739581          0.1   -24.799212 
  279000     289.0521   -30845.499   -30694.889   -12182.874     53.38316    288.91958     20.52514    86.789581          0.1   -9.6012946 
  280000    301.46055   -30848.967   -30691.892   -12338.831     53.38316    301.36943    20.598137    86.839581          0.1   -22.282528 
  281000    291.92111   -30848.172   -30696.067   -11796.851     53.38316    291.77009    20.581615    86.889581          0.1   -15.172269 
  282000    291.45369   -30843.611    -30691.75   -11837.403     53.38316    291.20733    20.408565    86.939581          0.1   -7.6682208 
  283000    298.18658   -30841.925   -30686.556   -11801.712     53.38316    298.08904    20.214523    86.989581          0.1   -16.817129 
  284000    301.07802    -30845.16   -30688.284   -12108.292     53.38316     300.9931    20.106813    87.039581          0.1   -19.030875 
  285000    291.58127   -30846.666   -30694.738   -13947.592     53.38316    291.52344    20.247967    87.089581          0.1   -15.549028 
  286000    298.25457   -30843.954    -30688.55   -13118.297     53.38316    298.25352     20.36169    87.139581          0.1   -13.340841 
  287000    290.08249     -30838.1   -30686.953   -12437.351     53.38316    290.05157    20.472634    87.189581          0.1   -21.737178 
  288000    294.88223   -30840.821   -30687.173    -12752.17     53.38316    294.33211    20.449639    87.239581          0.1   -26.052762 
  289000    295.52829   -30838.925   -30684.941   -13348.271     53.38316    295.18015    20.314444    87.289581          0.1   -10.298224 
  290000     290.8481   -30839.692   -30688.147   -12682.202     53.38316    290.49374    20.077064    87.339581          0.1   -20.962081 
  291000    300.65846   -30838.586   -30681.929   -12080.754     53.38316    299.96892    19.856851    87.389581          0.1   -20.180567 
  292000    293.87783   -30839.754    -30686.63   -12180.009     53.38316    293.36674    19.762766    87.439581          0.1   -11.594659 
  293000    290.05781   -30832.668   -30681.534   -12082.311     53.38316    289.62693    19.761435    87.489581          0.1   -27.488923 
  294000     292.9877   -30836.221   -30683.561   -12318.719     53.38316    292.71484    19.782537    87.539581          0.1   -13.338541 
  295000    298.51328   -30830.756   -30675.216   -12234.938     53.38316    298.21999    19.797251    87.589581          0.1   -23.799012 
  296000    296.89719   -30835.816   -30681.119   -13212.626     53.38316    296.74852    19.749975    87.639581          0.1   -24.881112 
  297000    297.25654   -30829.113   -30674.229   -13395.644     53.38316    297.11047    19.648723    87.689581          0.1   -19.934546 
  298000    295.23836   -30831.947   -30678.113   -12938.541     53.38316    295.22787    19.496642    87.739581          0.1   -24.131848 
  299000    298.77743   -30827.255   -30671.578   -13620.302     53.38316    298.76522    19.430178    87.789581          0.1   -27.722424 
  300000    294.57109   -30831.036   -30677.551   -12808.897     53.38316    294.44578    19.460657    87.839581          0.1   -14.546247 
  301000    291.46957   -30826.229    -30674.36   -13176.459     53.38316    291.35651    19.418097    87.889581          0.1   -12.911493 
  302000    300.13779   -30824.162   -30667.776   -13107.652     53.38316    299.91579    19.339394    87.939581          0.1   -21.291446 
  303000    292.70135   -30825.588   -30673.076   -11821.606     53.38316    292.62708    19.369731    87.989581          0.1    -22.34074 
  304000    291.67414   -30822.594   -30670.618   -13808.648     53.38316    291.39282    19.503029    88.039581          0.1   -22.941039 
  305000     291.1974   -30825.218    -30673.49   -14974.118     53.38316    291.07618    19.644229    88.089581          0.1    -27.72234 
  306000    295.53179   -30820.477    -30666.49   -14446.578     53.38316    295.40948    19.593129    88.139581          0.1   -22.486043 
  307000    283.05176   -30818.805   -30671.322   -12586.599     53.38316    283.01961    19.429531    88.189581          0.1   -21.491856 
  308000    297.47724   -30819.548   -30664.548   -13458.964     53.38316    297.26719    19.198406    88.239581          0.1   -18.266176 
  309000    292.73425   -30821.153   -30668.624   -13891.878     53.38316    292.59249    19.128218    88.289581          0.1   -27.186987 
  310000    300.51068   -30820.106   -30663.525   -13821.727     53.38316    300.34569    19.192033    88.339581          0.1   -18.841558 
  311000    296.23051   -30813.081   -30658.731   -14369.901     53.38316    295.79241    19.278185    88.389581          0.1   -17.553514 
  312000    292.73436   -30817.267   -30664.738   -14496.885     53.38316    292.43931    19.243022    88.439581          0.1   -26.861002 
  313000    294.84331   -30811.702   -30658.075   -13312.154     53.38316    294.38546    19.129145    88.489581          0.1   -27.562913 
  314000    290.79852   -30812.303   -30660.783   -13354.588     53.38316    290.34446    18.952029    88.539581          0.1    -21.32907 
  315000    289.63959   -30815.226    -30664.31   -14089.034     53.38316    289.06449    18.826869    88.589581          0.1    -18.03484 
  316000    294.07863   -30807.369    -30654.14    -14001.72     53.38316    293.51076    18.698038    88.639581          0.1   -23.238463 
  317000    287.85121   -30809.977   -30659.993   -12524.933     53.38316    287.33409    18.645729    88.689581          0.1   -28.635466 
  318000     288.8189   -30809.871   -30659.383   -13484.066     53.38316    288.61456    18.586305    88.739581          0.1   -25.139785 
  319000    294.90644   -30806.989   -30653.328   -13816.687     53.38316    294.79166    18.577789    88.789581          0.1   -18.547194 
  320000    296.48161   -30803.589   -30649.108   -13261.041     53.38316    296.46604    18.578849    88.839581          0.1   -12.924672 
  321000     298.6368   -30803.943   -30648.339   -14125.044     53.38316      298.471    18.599738    88.889581          0.1     -24.0704 
  322000    289.88379   -30801.838   -30650.795   -14342.307     53.38316    289.77497    18.502185    88.939581          0.1   -31.318534 
  323000    292.07124   -30796.939   -30644.756   -13825.468     53.38316    291.73432    18.424691    88.989581          0.1   -21.218494 
  324000    293.23525   -30800.261   -30647.471   -15150.235     53.38316    293.08756    18.403905    89.039581          0.1   -25.426971 
  325000    297.74586   -30801.264   -30646.124   -14373.809     53.38316    297.37552    18.462986    89.089581          0.1   -27.219292 
  326000    292.21929   -30796.097   -30643.837   -13661.023     53.38316    292.12348    18.496305    89.139581          0.1   -27.854326 
  327000       290.66   -30796.307   -30644.859   -14772.515     53.38316    290.53693    18.522085    89.189581          0.1   -26.530792 
  328000    298.68102   -30795.418   -30639.791    -14268.46     53.38316    298.61902    18.454624    89.239581          0.1    -31.80295 
  329000    290.87167   -30796.234   -30644.676   -14936.319     53.38316    290.86376    18.361668    89.289581          0.1   -27.603398 
  330000    291.74369   -30792.851   -30640.838   -14188.468     53.38316    291.66836    18.282464    89.339581          0.1   -27.884277 
  331000    297.93323   -30789.307    -30634.07   -14117.362     53.38316    297.78463    18.324413    89.389581          0.1   -36.139386 
  332000    289.38541   -30790.636   -30639.853   -14659.808     53.38316    289.05615    18.302318    89.439581          0.1   -33.319098 
  333000    288.53363    -30784.56    -30634.22   -14025.645     53.38316    287.90372    18.179045    89.489581          0.1   -23.861243 
  334000    298.76759    -30780.91   -30625.238   -14699.552     53.38316    298.25889    17.884255    89.539581          0.1   -35.519923 
  335000    293.98522   -30770.522   -30617.342   -14131.275     53.38316    293.74051    17.470928    89.589581          0.1   -33.398362 
  336000    290.49012   -30771.229   -30619.869    -13821.41     53.38316    290.23777    17.238449    89.639581          0.1   -25.385493 
  337000     301.3199   -30767.484   -30610.482   -13524.767     53.38316    301.18143    17.159319    89.689581          0.1   -25.273203 
  338000    293.66275   -30769.022    -30616.01   -13387.633     53.38316    293.56843    17.112173    89.739581          0.1   -30.638342 
  339000    287.07079   -30767.805   -30618.227   -13413.741     53.38316    286.76328    17.135802    89.789581          0.1   -29.822175 
  340000    296.13772   -30765.321   -30611.019   -14167.751     53.38316    296.05493    17.244951    89.839581          0.1   -34.212139 
  341000     292.6912   -30761.502   -30608.996   -14765.993     53.38316    292.34627    17.387398    89.889581          0.1   -33.577845 
  342000    289.90015   -30762.827   -30611.775   -15952.178     53.38316    289.64434    17.527677    89.939581          0.1   -32.838537 
  343000    289.67963   -30763.219   -30612.282   -15065.114     53.38316    289.51655    17.507686    89.989581          0.1   -36.044793 
  344000     293.6256   -30761.336   -30608.343   -14412.208     53.38316    293.40542    17.309113    90.039581          0.1    -25.68856 
  345000    298.45017   -30758.742   -30603.235   -13904.851     53.38316     298.3927    17.000526    90.089581          0.1   -22.224002 
  346000    295.89689   -30757.849   -30603.673   -14638.241     53.38316    295.88496    16.908835    90.139581          0.1   -29.607991 
  347000    289.76713   -30759.031   -30608.048   -14985.205     53.38316    289.68933     17.00924    90.189581          0.1   -23.934273 
  348000    294.40823    -30753.99    -30600.59   -15004.977     53.38316    294.34552    17.287112    90.239581          0.1    -35.41367 
  349000    301.69872   -30751.339   -30594.139   -14958.278     53.38316     301.5637    17.503646    90.289581          0.1   -35.323227 
  350000    294.34938   -30753.527   -30600.157   -16108.375     53.38316    294.08284    17.489813    90.339581          0.1   -30.528856 
  351000    300.87444   -30752.578   -30595.808   -15750.193     53.38316    300.55278    17.185886    90.389581          0.1   -30.715732 
  352000    294.26212   -30751.676   -30598.351   -14537.522     53.38316    293.85724    16.746736    90.439581          0.1   -31.100767 
  353000    287.99072   -30752.938   -30602.881   -13750.083     53.38316    287.46608    16.483194    90.489581          0.1   -26.784307 
  354000    290.88406   -30745.181   -30593.616   -13914.961     53.38316    290.58702    16.537585    90.539581          0.1   -30.565369 
  355000     299.8815   -30749.067   -30592.815   -15423.296     53.38316     299.7483    16.754669    90.589581          0.1    -29.13441 
  356000    304.07912   -30744.207   -30585.767   -15440.603     53.38316    303.90622    16.833198    90.639581          0.1   -28.381272 
  357000    288.05636   -30739.582   -30589.491     -16059.5     53.38316    288.02609    16.834673    90.689581          0.1   -30.930866 
  358000    296.99749   -30740.562   -30585.812   -15527.312     53.38316    296.93122    16.819613    90.739581          0.1   -30.594389 
  359000    298.02062   -30741.926   -30586.643    -15408.95     53.38316    297.85628     16.73915    90.789581          0.1   -32.343085 
  360000    294.93308   -30742.545   -30588.871   -15995.683     53.38316    294.73267    16.563643    90.839581          0.1   -31.612249 
  361000    291.73499   -30743.172   -30591.164    -14443.87     53.38316    291.59025    16.357505    90.889581          0.1   -31.386389 
  362000    306.62909   -30741.643   -30581.874   -15393.266     53.38316    306.48213    16.293238    90.939581          0.1   -34.917749 
  363000    292.79705    -30733.63   -30581.069   -16010.031     53.38316    292.70267    16.480408    90.989581          0.1   -36.067591 
  364000     300.4835   -30732.241   -30575.675   -13404.669     53.38316    297.72512    16.852277    91.039581          0.1   -30.845379 
  365000    298.06982   -30724.956   -30569.647   -11003.926     53.38316    295.01614    17.021489    91.089581          0.1   -19.023252 
  366000    294.45153   -30729.734   -30576.311   -11619.471     53.38316    290.71475    17.046536    91.139581          0.1   -8.2549154 
  367000    295.53327   -30730.687     -30576.7   -12455.766     53.38316    290.38327    17.051002    91.189581          0.1   -19.295291 
  368000    299.04425   -30724.188   -30568.372   -11935.772     53.38316    293.80186    16.991214    91.239581          0.1   -17.074884 
  369000    299.56767   -30727.093   -30571.004   -12794.949     53.38316    295.15364    16.973678    91.289581          0.1   -16.999896 
  370000    290.74365   -30724.531    -30573.04   -12358.029     53.38316    287.85284    17.235975    91.339581          0.1   -23.992459 
  371000    298.35886   -30721.274   -30565.815   -11870.291     53.38316    295.51464    17.730735    91.389581          0.1   -27.588693 
  372000    298.49172   -30717.634   -30562.105   -11956.343     53.38316    296.09896    18.278213    91.439581          0.1   -33.008664 
  373000    296.65922   -30713.948   -30559.375   -11974.433     53.38316    294.32857    18.513865    91.489581          0.1   -28.415887 
  374000     293.9118   -30710.225   -30557.083   -12179.773     53.38316    292.57828     18.48826    91.539581          0.1   -27.805637 
  375000    294.64719   -30711.639   -30558.114     -13444.9     53.38316     294.3313    18.330802    91.589581          0.1   -24.807996 
  376000    294.60107   -30716.872   -30563.371   -13600.181     53.38316    294.21924     18.06315    91.639581          0.1   -28.237223 
  377000       295.94   -30716.139    -30561.94    -10754.43     53.38316    294.52892     17.92411    91.689581          0.1   -24.267985 
  378000     294.7717   -30711.211   -30557.621   -9971.4265     53.38316    294.20526    17.993569    91.739581          0.1   -27.683833 
  379000    294.75133   -30715.625   -30562.045   -11770.203     53.38316    293.83805    18.116956    91.789581          0.1   -16.744806 
  380000     292.5503    -30711.36   -30558.927   -12095.291     53.38316    291.00974    18.193833    91.839581          0.1    -21.35635 
  381000    297.19394   -30710.726   -30555.874   -10480.296     53.38316    295.62642     18.12645    91.889581          0.1   -20.723781 
  382000    292.71806   -30710.825   -30558.305   -10981.809     53.38316    291.28841    17.986363    91.939581          0.1   -25.336966 
  383000    293.83506   -30710.903   -30557.801   -13465.284     53.38316    292.51753    17.821901    91.989581          0.1   -27.222844 
  384000    300.67139   -30707.825   -30551.161   -13112.058     53.38316    299.78187    17.608357    92.039581          0.1   -31.884831 
  385000    300.12329   -30710.294   -30553.915    -10046.13     53.38316    299.34568    17.336118    92.089581          0.1   -18.722525 
  386000    297.06557   -30706.211   -30551.426    -10155.89     53.38316    296.42434    17.208803    92.139581          0.1   -26.319111 
  387000    295.21358   -30706.295   -30552.474   -11741.279     53.38316    294.93618     17.13776    92.189581          0.1   -22.518605 
  388000    299.99113   -30703.569   -30547.259     -12601.7     53.38316    299.98691    17.090679    92.239581          0.1   -24.144664 
  389000    293.94053    -30700.39   -30547.233   -11083.709     53.38316    293.75485    17.046455    92.289581          0.1   -22.670686 
  390000    290.95053   -30703.623   -30552.024   -11715.537     53.38316    290.79119    17.253638    92.339581          0.1   -25.363583 
  391000    293.69718    -30697.33     -30544.3   -12374.454     53.38316    292.78152    17.435091    92.389581          0.1   -19.104239 
  392000    287.52836   -30699.996   -30550.181   -11822.177     53.38316      286.951    17.548051    92.439581          0.1   -31.011602 
  393000    299.31763   -30695.584   -30539.626   -8620.8273     53.38316    298.29899     17.47547    92.489581          0.1   -25.928071 
  394000    295.82996   -30693.188   -30539.047   -8975.6538     53.38316    294.21831    17.824502    92.539581          0.1   -18.673295 
  395000    295.30176   -30695.729   -30541.862   -11206.688     53.38316    293.59639    18.602522    92.589581          0.1    -19.66465 
  396000    298.56053   -30691.204    -30535.64   -10125.062     53.38316    296.75184    19.512546    92.639581          0.1   -15.505142 
  397000    291.02458   -30685.733   -30534.095   -9443.0082     53.38316    290.05964    20.007669    92.689581          0.1   -25.870392 
  398000    288.41142   -30676.691   -30526.415   -9961.2323     53.38316    287.76586    19.834801    92.739581          0.1   -19.780297 
  399000    293.28559   -30679.472   -30526.657   -9271.1341     53.38316    292.02404    19.520732    92.789581          0.1   -10.898588 
  400000    300.52767    -30678.73   -30522.141    -10937.33     53.38316    299.91348    19.245592    92.839581          0.1   -21.918157 
  401000    297.67288    -30678.79   -30523.688   -10095.313     53.38316    297.47507    19.199546    92.889581          0.1   -16.912774 
  402000    297.20579   -30676.856   -30521.998   -9346.5745     53.38316    296.91484    19.347544    92.939581          0.1   -20.355077 
  403000    295.00243   -30676.585   -30522.874   -10750.126     53.38316    294.77581    19.781694    92.989581          0.1     -14.2937 
  404000    288.81278   -30673.683   -30523.198   -9339.1706     53.38316     288.4611    20.102032    93.039581          0.1    -16.06695 
  405000     295.4886   -30669.865   -30515.901   -10024.469     53.38316    295.20072    20.026992    93.089581          0.1    -19.83177 
  406000    299.48506   -30670.884   -30514.838   -10727.968     53.38316    298.97707    19.746602    93.139581          0.1   -14.928963 
  407000    295.18993   -30672.316   -30518.508   -9263.0603     53.38316    294.53177    19.370071    93.189581          0.1    -10.35385 
  408000    290.99755   -30670.769   -30519.146   -8240.3564     53.38316    290.55619    19.180472    93.239581          0.1   -9.6704397 
  409000     293.9467     -30663.6    -30510.44   -10192.569     53.38316    293.25695    18.973491    93.289581          0.1   -22.620208 
  410000    298.06241   -30665.698   -30510.393   -7748.9508     53.38316    297.56614    18.825051    93.339581          0.1   -6.1170253 
  411000    297.86472   -30666.552    -30511.35    -9416.018     53.38316    297.77558    18.863737    93.389581          0.1   -19.990284 
  412000    291.93079   -30662.895   -30510.785   -10406.624     53.38316    291.78074    19.240336    93.439581          0.1     -8.20685 
  413000    285.28555   -30665.859   -30517.211   -11062.623     53.38316    285.26092    19.459998    93.489581          0.1   -22.517153 
  414000    291.77908   -30662.313   -30510.282   -9212.2853     53.38316    291.69988    19.413122    93.539581          0.1   -23.879656 
  415000    299.44517   -30662.844   -30506.818   -8201.2653     53.38316    299.15857    19.119531    93.589581          0.1   -11.875522 
  416000    296.01784   -30657.428   -30503.189   -8046.3473     53.38316    295.83502    18.791183    93.639581          0.1   -12.548143 
  417000    298.50957   -30657.651   -30502.114   -9039.5039     53.38316    298.44619     18.69399    93.689581          0.1   -19.860858 
  418000    294.99247   -30660.263   -30506.558   -10974.254     53.38316    294.57252    18.831536    93.739581          0.1   -17.895417 
  419000    293.85513   -30658.162   -30505.049   -9898.5056     53.38316    292.68079    19.085291    93.789581          0.1   -19.440912 
  420000    295.46761    -30656.33   -30502.377    -9130.043     53.38316     294.4132    19.362876    93.839581          0.1   -18.113434 
  421000    289.84782   -30657.714    -30506.69   -9401.5486     53.38316    289.53179     19.51694    93.889581          0.1   -18.120665 
  422000    299.25194   -30653.505    -30497.58   -8693.5164     53.38316    299.13763    19.241192    93.939581          0.1    -8.894354 
  423000     290.8633   -30652.689   -30501.135   -8846.6025     53.38316    290.43408     18.78796    93.989581          0.1   -8.4510808 
  424000    288.38641   -30659.303    -30509.04    -9532.793     53.38316    288.36399    18.239617    94.039581          0.1   -19.287206 
  425000    298.57961   -30653.329   -30497.755   -8983.3266     53.38316    298.48765    18.169063    94.089581          0.1   -19.580026 
  426000    296.53029    -30651.64   -30497.134   -9652.9413     53.38316     296.0528    18.452681    94.139581          0.1   -12.365438 
  427000    300.18717   -30650.752    -30494.34   -10334.494     53.38316    299.91884    18.902426    94.189581          0.1   -22.312328 
  428000    293.79418   -30648.132   -30495.051   -9453.3705     53.38316    293.56889    19.254152    94.239581          0.1   -19.978073 
  429000    295.32562   -30649.738    -30495.86   -10119.495     53.38316    294.82261    19.392318    94.289581          0.1   -21.768173 
  430000    296.57187   -30645.893   -30491.365   -9970.6571     53.38316    295.97428    19.236743    94.339581          0.1   -21.020577 
  431000    295.49229   -30651.094   -30497.129   -10295.228     53.38316    295.19407    18.698418    94.389581          0.1   -20.791831 
  432000     292.4163   -30648.463     -30496.1   -9361.6578     53.38316    292.16519    18.085289    94.439581          0.1    -22.65491 
  433000    292.16185   -30643.303   -30491.073    -9386.569     53.38316     291.1165     17.57514    94.489581          0.1   -16.488372 
  434000    295.35421   -30641.736   -30487.843   -10239.222     53.38316    294.89463    17.559171    94.539581          0.1   -15.910407 
  435000    293.74428   -30640.504    -30487.45   -9402.9721     53.38316    293.41796    17.768767    94.589581          0.1   -14.744799 
  436000    288.57004   -30636.523   -30486.164   -9344.6806     53.38316    287.82968    18.115485    94.639581          0.1    -12.26621 
  437000    288.24624   -30640.134   -30489.944   -8948.6659     53.38316    287.80869    18.341751    94.689581          0.1   -20.786459 
  438000    297.54422   -30638.642   -30483.607   -10464.105     53.38316    297.12812    18.352046    94.739581          0.1   -9.7400835 
  439000     292.0428   -30637.559    -30485.39   -10716.411     53.38316    291.97812    18.278164    94.789581          0.1   -18.709246 
  440000    292.66045   -30632.786   -30480.296   -11315.082     53.38316    292.63019    18.080944    94.839581          0.1   -21.350587 
  441000     291.2788   -30630.621    -30478.85   -9379.7123     53.38316    290.79758    17.931752    94.889581          0.1   -16.645071 
  442000    298.39255   -30636.629   -30481.152   -8629.7842     53.38316    296.70963    17.826915    94.939581          0.1   -27.639137 
  443000    296.81501   -30632.872   -30478.217   -9108.7588     53.38316    295.86991    17.866157    94.989581          0.1   -13.228331 
  444000    291.09325   -30629.499   -30477.825   -9739.0878     53.38316    290.24984    17.870458    95.039581          0.1   -16.925944 
  445000    298.84613   -30626.713       -30471   -9868.9221     53.38316    298.04065    17.847415    95.089581          0.1   -23.958325 
  446000    303.93877   -30629.789   -30471.422   -9679.4501     53.38316    302.91559    17.845384    95.139581          0.1   -26.422562 
  447000    287.95567   -30628.343   -30478.305   -8971.9023     53.38316     287.3363    17.970411    95.189581          0.1   -16.179113 
  448000    297.18947   -30627.931   -30473.081   -8697.4217     53.38316    296.27291    18.171499    95.239581          0.1   -15.235717 
  449000    292.25584   -30629.579     -30477.3   -9868.5632     53.38316    291.05009    18.188186    95.289581          0.1   -17.884228 
  450000    290.65981   -30623.529   -30472.081   -9688.4382     53.38316    289.09604    18.248047    95.339581          0.1    -18.43937 
  451000      297.304   -30620.859   -30465.949   -10446.726     53.38316    296.33364    18.489478    95.389581          0.1   -18.939423 
  452000    300.22314   -30625.376   -30468.945    -10505.05     53.38316    299.62478    18.919199    95.439581          0.1   -22.758546 
  453000    296.90018   -30622.659    -30467.96   -10789.195     53.38316    296.49057    19.310565    95.489581          0.1   -20.228619 
  454000    292.86387   -30616.337   -30463.741   -10213.657     53.38316    292.48006    19.469418    95.539581          0.1   -17.123277 
  455000    300.02371    -30618.44   -30462.114   -9457.5895     53.38316    299.96965    19.512454    95.589581          0.1   -18.818368 
  456000    293.09306   -30618.681   -30465.965   -9232.1168     53.38316    291.86742    19.411933    95.639581          0.1   -21.644082 
  457000     288.3208   -30618.168   -30467.939   -10251.514     53.38316    286.90889    19.182126    95.689581          0.1   -22.139858 
  458000    298.57992   -30614.737   -30459.162   -9993.8396     53.38316    298.18979    18.881181    95.739581          0.1   -14.575026 
  459000    297.74853   -30612.625   -30457.484   -10476.293     53.38316    297.20124    18.698005    95.789581          0.1   -20.356661 
  460000    294.02736   -30613.728   -30460.526   -8453.1936     53.38316    293.02517    18.587112    95.839581          0.1   -13.622339 
  461000    297.43481   -30612.774   -30457.796   -8656.5816     53.38316    296.06717    18.526915    95.889581          0.1   -8.3123738 
  462000    292.81784   -30611.478   -30458.906   -9036.5374     53.38316    291.47107     18.53589    95.939581          0.1   -26.143936 
  463000    292.28494   -30613.327   -30461.033   -9830.2994     53.38316    290.91867    18.571125    95.989581          0.1   -12.610285 
  464000    285.39072   -30611.141   -30462.439   -9068.5482     53.38316    284.41187    18.619295    96.039581          0.1   -22.431105 
  465000    292.36547   -30609.293   -30456.956   -9227.2411     53.38316    291.88653    18.594968    96.089581          0.1      -25.244 
  466000    293.71912   -30603.564   -30450.522   -10704.532     53.38316    293.21098    18.477038    96.139581          0.1   -8.2903004 
  467000    297.71836   -30608.241   -30453.115   -11023.858     53.38316    297.59587    18.413407    96.189581          0.1   -10.792437 
  468000    291.99801   -30606.945     -30454.8   -10398.211     53.38316    291.82521    18.304214    96.239581          0.1   -16.490641 
  469000    292.80485   -30608.181   -30455.616   -8764.5716     53.38316    292.51483    18.025579    96.289581          0.1   -10.768967 
  470000    294.46195   -30604.728   -30451.299   -9899.0581     53.38316    293.41674    17.781533    96.339581          0.1    -10.72688 
  471000    295.60503   -30600.248   -30446.224   -9356.1662     53.38316    294.50598    17.640685    96.389581          0.1   -21.518725 
  472000    291.15725   -30603.506   -30451.799   -11150.575     53.38316    290.74862    17.736101    96.439581          0.1    -15.85031 
  473000    290.11378   -30603.277   -30452.113   -11280.439     53.38316    289.57673    17.954309    96.489581          0.1   -16.108959 
  474000    293.98835   -30599.037   -30445.855    -10412.83     53.38316    293.39086    18.108628    96.539581          0.1   -18.856984 
  475000    292.26757   -30600.072   -30447.786   -10070.785     53.38316    291.79832    18.352972    96.589581          0.1   -22.200644 
  476000    296.93507   -30596.812   -30442.095   -10044.314     53.38316    296.56316     18.64541    96.639581          0.1   -23.914465 
  477000    298.21329   -30599.801   -30444.418   -9228.6925     53.38316    297.32903    18.862376    96.689581          0.1   -16.819139 
  478000    291.23861   -30597.201   -30445.452   -9811.4483     53.38316    290.17283     18.91311    96.739581          0.1    -25.80175 
  479000    289.46403   -30595.714   -30444.889   -9472.1275     53.38316    288.38977    18.927067    96.789581          0.1   -23.251359 
  480000    297.24349   -30595.659   -30440.781   -10923.106     53.38316    296.18771    18.851128    96.839581          0.1   -7.7918577 
  481000     287.6542   -30590.207   -30440.325   -10813.708     53.38316    287.16386    18.814387    96.889581          0.1   -20.815361 
  482000    287.97555   -30592.681   -30442.632   -10614.683     53.38316    287.55917    18.753345    96.939581          0.1   -12.665766 
  483000    290.87721   -30593.286   -30441.725   -10130.586     53.38316    290.82339    18.780592    96.989581          0.1   -11.337809 
  484000    289.23338   -30587.128   -30436.424   -9473.6757     53.38316    288.94642    18.976852    97.039581          0.1   -24.578923 
  485000    294.89755   -30587.763   -30434.107   -10805.011     53.38316    294.22943    19.273692    97.089581          0.1   -9.7992213 
  486000    297.40698   -30590.914    -30435.95    -11691.76     53.38316    297.13113    19.634444    97.139581          0.1   -19.807508 
  487000    295.69908   -30591.057   -30436.984    -10098.36     53.38316    295.46562    19.844581    97.189581          0.1   -15.139895 
  488000    296.51623   -30587.844   -30433.345   -9591.3306     53.38316    296.27651    19.791599    97.239581          0.1   -10.807353 
  489000    296.64899     -30585.3   -30430.732    -9780.925     53.38316    296.51182    19.642819    97.289581          0.1   -15.755405 
  490000     291.6831   -30584.184   -30432.203    -8871.388     53.38316    291.58951    19.439761    97.339581          0.1   -10.389938 
  491000    292.41912    -30580.93   -30428.566   -8646.1176     53.38316    292.35058    19.215076    97.389581          0.1   -10.028631 
  492000    293.50194   -30573.908    -30420.98   -9402.6126     53.38316    293.43954    19.112754    97.439581          0.1   -15.014552 
  493000    298.08135   -30578.588   -30423.273   -10111.539     53.38316    297.92549    18.995166    97.489581          0.1   -13.675845 
  494000    298.77898    -30573.97   -30418.292    -9876.272     53.38316    298.19084    18.963911    97.539581          0.1   -13.656794 
  495000    298.54236   -30573.458   -30417.903   -11163.103     53.38316    298.47426    19.067994    97.589581          0.1   -12.873152 
  496000    289.33585   -30577.095   -30426.337   -11038.271     53.38316    289.21951    19.234426    97.639581          0.1   -14.405019 
  497000    298.37503   -30572.187   -30416.719   -9983.0965     53.38316     298.1185    19.148046    97.689581          0.1   -12.417116 
  498000    300.38855   -30569.183   -30412.666   -9374.9198     53.38316    300.21034    19.060388    97.739581          0.1   -7.8032931 
  499000    294.14422   -30568.967   -30415.704   -8916.2935     53.38316    294.04832    19.037106    97.789581          0.1   -13.108514 
  500000     289.2811    -30565.22   -30414.491   -10664.315     53.38316    289.16698    19.020394    97.839581          0.1   -19.482429 
  501000    298.16459   -30564.452   -30409.094   -10676.288     53.38316    298.06995    18.919894    97.889581          0.1   -21.373384 
  502000    293.82023   -30566.257   -30413.162   -11052.822     53.38316    293.69532    18.953055    97.939581          0.1   -16.853154 
  503000    296.60843   -30569.108    -30414.56   -11068.796     53.38316    296.25573     19.13411    97.989581          0.1   -27.135439 
  504000    297.50703   -30564.693   -30409.678   -9814.2668     53.38316    296.86405    19.323143    98.039581          0.1   -17.987976 
  505000    290.99838   -30562.944    -30411.32   -10748.626     53.38316     290.9669    19.420794    98.089581          0.1   -12.316716 
  506000    298.60457   -30564.506   -30408.919   -9566.8553     53.38316    298.55864     19.34742    98.139581          0.1   -14.664084 
  507000     287.4315   -30565.688   -30415.922   -11023.238     53.38316    287.41175    19.220417    98.189581          0.1   -22.928833 
  508000    298.33848   -30566.245   -30410.797   -11017.686     53.38316    298.06665    19.092823    98.239581          0.1   -13.030765 
  509000    298.11063   -30565.084   -30409.754   -10583.636     53.38316    297.85803    18.871927    98.289581          0.1    -13.17165 
  510000    294.42653   -30562.323   -30408.913   -11337.223     53.38316    294.20382    18.693268    98.339581          0.1   -18.089784 
  511000    292.31147   -30558.122   -30405.814   -10333.236     53.38316    292.03932    18.611702    98.389581          0.1   -9.2620297 
  512000     293.2308   -30558.906   -30406.118   -10744.529     53.38316    293.00141    18.690513    98.439581          0.1   -14.235976 
  513000    294.08736   -30557.122   -30403.889   -11187.172     53.38316    293.66169    18.706957    98.489581          0.1   -19.022224 
  514000    294.77365   -30556.415   -30402.824   -10219.808     53.38316      294.414    18.725731    98.539581          0.1   -18.388889 
  515000     293.5173   -30558.606    -30405.67    -10031.98     53.38316    293.22284    18.756644    98.589581          0.1   -9.0361219 
  516000    299.01426   -30555.265   -30399.465    -10689.56     53.38316    298.68872    18.799674    98.639581          0.1   -23.839311 
  517000    284.38602   -30553.666   -30405.488   -11248.684     53.38316    284.33509     18.90751    98.689581          0.1   -17.193481 
  518000     291.2801   -30552.132   -30400.361   -10702.382     53.38316    291.19737    19.184877    98.739581          0.1   -23.088686 
  519000    301.82051   -30553.186   -30395.924   -10170.082     53.38316      301.363    19.544093    98.789581          0.1   -15.108036 
  520000    294.41943   -30550.344   -30396.938   -10674.583     53.38316    294.17735    19.673066    98.839581          0.1   -14.492161 
  521000    289.51621    -30547.69   -30396.838   -10879.413     53.38316    289.16495    19.678825    98.889581          0.1   -11.206745 
  522000    299.53062   -30547.223   -30391.153   -10707.246     53.38316    299.07947    19.591388    98.939581          0.1   -21.807798 
  523000    296.64374   -30545.995   -30391.429   -9960.6328     53.38316    295.57452    19.499879    98.989581          0.1   -19.424893 
  524000    298.33124   -30547.361   -30391.916   -10351.518     53.38316    297.04269    19.467474    99.039581          0.1   -14.691038 
  525000    298.20518   -30543.941   -30388.562   -11030.782     53.38316    296.50096    19.407969    99.089581          0.1   -22.813138 
  526000    293.37359   -30545.917   -30393.055   -10393.854     53.38316    292.49195    19.388327    99.139581          0.1     -13.4502 
  527000     295.6286   -30539.953   -30385.917   -10420.704     53.38316    294.69288     19.57304    99.189581          0.1    -15.43638 
  528000    294.22267   -30541.252   -30387.948   -10474.875     53.38316    293.58552    19.766968    99.239581          0.1   -10.569583 
  529000    290.01757   -30538.795   -30387.682   -9845.7649     53.38316     288.9301    20.088776    99.289581          0.1   -19.127292 
  530000    297.44773   -30539.195    -30384.21   -10292.079     53.38316    296.77064    20.418393    99.339581          0.1   -13.100584 
  531000    292.72714   -30536.642   -30384.118    -10216.73     53.38316    292.14551    20.683195    99.389581          0.1   -17.576948 
  532000    296.08065   -30534.919   -30380.647   -8597.0887     53.38316     295.7341    20.800252    99.439581          0.1   -14.307669 
  533000    286.11011   -30535.081   -30386.004   -9486.0635     53.38316    285.29708    20.809425    99.489581          0.1   -10.338365 
  534000    298.54479   -30535.124   -30379.568   -9254.8972     53.38316    298.32925     20.67422    99.539581          0.1    -14.93818 
  535000    290.64868   -30535.359   -30383.917   -8949.4551     53.38316    290.40553    20.493593    99.589581          0.1   -15.970634 
  536000     297.2198   -30531.395   -30376.529   -10276.269     53.38316    296.70103    20.359148    99.639581          0.1   -8.6725641 
  537000    292.81263   -30533.589    -30381.02   -9214.2386     53.38316     292.4016    20.358088    99.689581          0.1   -11.711221 
  538000    295.15705   -30531.496   -30377.706   -9679.3043     53.38316    294.69671    20.349381    99.739581          0.1   -14.811194 
  539000     301.2303   -30526.887   -30369.932   -9503.3443     53.38316    300.64799    20.333942    99.789581          0.1   -12.258651 
  540000    289.49993   -30529.268   -30378.425   -8934.7035     53.38316    288.49507    20.413685    99.839581          0.1   -11.070019 
  541000    292.22681   -30527.989   -30375.725   -8073.3981     53.38316    291.66229    20.634049    99.889581          0.1   -14.896783 
  542000    292.29597   -30528.716   -30376.416   -8868.5627     53.38316    292.05971    20.885474    99.939581          0.1   -13.590206 
  543000    297.64409   -30524.696    -30369.61   -10467.327     53.38316    297.46857    20.905871    99.989581          0.1   -18.499766 
  544000    293.31489   -30524.941   -30372.109   -9913.6179     53.38316    293.04534    20.723537    100.03958          0.1   -16.058032 
  545000    296.82086   -30523.677    -30369.02   -9117.6982     53.38316    296.66089    20.619463    100.08958          0.1   -15.945734 
  546000    295.11775   -30526.622   -30372.852   -9485.1687     53.38316    294.96016    20.386152    100.13958          0.1   -15.697591 
  547000     293.8758   -30521.848   -30368.725   -8934.8788     53.38316     293.2842    20.177938    100.18958          0.1   -22.850531 
  548000    293.28739   -30526.466   -30373.649   -9117.0018     53.38316     292.5822    20.069365    100.23958          0.1   -12.934336 
  549000    297.97056   -30522.468   -30367.211   -10128.977     53.38316    297.20999    19.966711    100.28958          0.1   -8.7454609 
  550000    297.26636   -30522.451   -30367.561   -10061.717     53.38316    296.93251    19.969874    100.33958          0.1   -25.965706 
  551000    297.46071   -30518.298   -30363.307   -9651.9479     53.38316    297.35429    20.105669    100.38958          0.1   -16.672243 
  552000    295.70466   -30519.662   -30365.586   -9358.2122     53.38316    295.29477    20.547999    100.43958          0.1   -13.484671 
  553000    298.93234   -30524.488    -30368.73   -9372.7756     53.38316    298.48679    21.035856    100.48958          0.1    -15.36987 
  554000    298.40022   -30516.615   -30361.134   -8841.8112     53.38316    297.96061    21.442579    100.53958          0.1   -9.2772838 
  555000     292.3932   -30515.707   -30363.357   -8962.8886     53.38316    291.69572    21.728765    100.58958          0.1   -21.082411 
  556000    293.58684   -30516.142   -30363.169    -9119.088     53.38316    292.39189    21.764741    100.63958          0.1   -12.611438 
  557000    293.95094   -30512.229   -30359.066    -8783.262     53.38316    292.75728     21.54762    100.68958          0.1   -16.998769 
  558000    294.28548   -30515.844   -30362.507   -8828.2936     53.38316    292.99427    21.247306    100.73958          0.1   -10.627132 
  559000    289.20513   -30517.332   -30366.643   -10570.143     53.38316    288.40805    21.077134    100.78958          0.1   -14.536184 
  560000    295.55797    -30514.16    -30360.16   -8484.4841     53.38316    294.71183    21.048395    100.83958          0.1   -8.6819945 
  561000    294.30126    -30511.07   -30357.725   -9971.6944     53.38316    293.74673    21.185565    100.88958          0.1   -21.285405 
  562000    288.78171   -30510.445   -30359.976   -9283.1481     53.38316    288.56982     21.49961    100.93958          0.1   -13.501034 
  563000    291.03193   -30509.792   -30358.151   -7775.1907     53.38316    290.78248    21.741409    100.98958          0.1   -16.072533 
  564000    288.58558   -30504.682   -30354.315   -8767.1784     53.38316    288.49654    21.949135    101.03958          0.1   -13.766218 
  565000     292.3391    -30507.42   -30355.097   -8068.6037     53.38316    292.32375    22.212077    101.08958          0.1    -15.67684 
  566000    289.64096   -30503.452   -30352.535   -8537.9005     53.38316    289.43442    22.671567    101.13958          0.1   -18.167507 
  567000    301.06579   -30507.489   -30350.619   -7471.0113     53.38316     300.5419    23.164505    101.18958          0.1    6.2175829 
  568000    290.95068   -30507.002   -30355.403   -6987.6315     53.38316    289.61816    23.528357    101.23958          0.1   -10.312459 
  569000    296.45182   -30505.147   -30350.681    -8678.317     53.38316    295.33966    23.629086    101.28958          0.1    -28.36659 
  570000    296.04154   -30504.488   -30350.236   -8165.1604     53.38316    295.71052    23.546191    101.33958          0.1   -3.3548182 
  571000    293.40278   -30498.231   -30345.354   -9321.6835     53.38316    293.26269     23.38078    101.38958          0.1   -14.607263 
  572000    291.31778   -30505.011    -30353.22   -7834.6831     53.38316    291.08034    23.018141    101.43958          0.1    2.7428288 
  573000     293.2357   -30500.818   -30348.028   -8661.5176     53.38316    293.00646    22.678557    101.48958          0.1   -7.7833721 
  574000    286.70454   -30498.339   -30348.952   -8805.2726     53.38316    285.95848    22.531083    101.53958          0.1   -9.2210038 
  575000    287.76976   -30499.561   -30349.619   -6637.4123     53.38316    286.94966    22.522996    101.58958          0.1   -11.296128 
  576000    295.73104   -30497.123   -30343.033   -6919.6658     53.38316    295.13348    22.601356    101.63958          0.1   -13.898763 
  577000    291.53528   -30496.758   -30344.855   -7928.0986     53.38316    291.00725    23.012882    101.68958          0.1   -8.6699526 
  578000    289.86443   -30497.383   -30346.349   -7998.3564     53.38316    289.69793    23.479408    101.73958          0.1   -17.989071 
  579000    293.77677   -30494.423   -30341.351   -6651.1197     53.38316    293.64828    23.701812    101.78958          0.1   -11.830829 
  580000    295.16992   -30493.061   -30339.263   -6640.2294     53.38316    295.13177    23.942754    101.83958          0.1   -6.1993218 
  581000     293.6585   -30493.862   -30340.852   -6614.7755     53.38316    293.46193    24.308722    101.88958          0.1    -7.513238 
  582000    297.64021   -30490.524   -30335.439   -6137.7512     53.38316    297.25797    24.585912    101.93958          0.1    -8.322409 
  583000    297.40152    -30492.29    -30337.33   -6575.4604     53.38316    297.05749    24.608523    101.98958          0.1    -3.168644 
  584000    293.26561   -30494.379   -30341.574   -7575.0166     53.38316    293.13317    24.709793    102.03958          0.1   -11.227985 
  585000    292.35483    -30488.01   -30335.679    -7176.556     53.38316    292.30609    24.550251    102.08958          0.1   -9.1300859 
  586000    294.61416   -30488.393   -30334.885   -6887.1937     53.38316    294.35861    24.306682    102.13958          0.1    1.1361353 
  587000    286.78959   -30488.357   -30338.926   -7282.0932     53.38316    286.47885    24.050428    102.18958          0.1   -10.713038 
  588000    294.35955   -30486.712   -30333.337   -7992.3036     53.38316     294.3126    23.848282    102.23958          0.1   -8.8161286 
  589000    292.60634   -30487.584   -30335.122   -6710.0525     53.38316    292.05744    23.893802    102.28958          0.1   -6.2794207 
  590000    288.34635   -30486.507   -30336.265   -7746.7588     53.38316    287.39452    24.104512    102.33958          0.1   -12.972535 
  591000    300.11916   -30491.563   -30335.186   -7157.9883     53.38316    299.24171    24.218576    102.38958          0.1    5.3936316 
  592000    293.67136   -30491.489   -30338.472   -7288.7289     53.38316    293.50329     24.34417    102.43958          0.1   -13.434815 
  593000    294.05529   -30488.502   -30335.286   -6887.7855     53.38316    293.97131    24.397587    102.48958          0.1   -1.7059331 
  594000    299.64477   -30487.173   -30331.044   -6953.5873     53.38316    299.43369    24.311579    102.53958          0.1   -10.198818 
  595000    301.20701   -30489.033    -30332.09   -6934.8174     53.38316    301.02342     24.23013    102.58958          0.1   -19.213277 
  596000    294.75827   -30487.927   -30334.344    -7063.335     53.38316    294.37857    24.057345    102.63958          0.1   -8.8581647 
  597000    283.59845   -30485.025   -30337.256   -7346.6832     53.38316     282.7971    23.887443    102.68958          0.1   -5.8574026 
  598000    292.30074   -30485.375   -30333.072   -6555.1915     53.38316    291.75829    23.931163    102.73958          0.1   -4.5363368 
  599000     292.8386   -30481.209   -30328.626   -6765.9573     53.38316    292.55796    23.916083    102.78958          0.1   -5.3215375 
  600000    290.17717   -30479.319   -30328.122   -6482.7985     53.38316    290.00424    23.900369    102.83958          0.1   -12.513936 
Loop time of 1739.92 on 24 procs for 500000 steps with 4032 atoms

Performance: 12.414 ns/day, 1.933 hours/ns, 287.370 timesteps/s
97.8% CPU use with 24 MPI tasks x no OpenMP threads

MPI task timing breakdown:
Section |  min time  |  avg time  |  max time  |%varavg| %total
---------------------------------------------------------------
Pair    | 286.21     | 832.28     | 1625       |1178.0 | 47.83
Neigh   | 2.4858     | 7.2005     | 12.84      | 119.7 |  0.41
Comm    | 90.612     | 845.07     | 1286.7     |1055.7 | 48.57
Output  | 0.12591    | 0.12639    | 0.13164    |   0.3 |  0.01
Modify  | 8.934      | 51.118     | 239.86     | 806.5 |  2.94
Other   |            | 4.118      |            |       |  0.24

Nlocal:        168.000 ave         390 max           0 min
Histogram: 5 0 2 2 4 7 0 2 0 2
Nghost:        920.708 ave        1581 max         338 min
Histogram: 3 0 2 6 1 3 6 0 2 1
Neighs:        0.00000 ave           0 max           0 min
Histogram: 24 0 0 0 0 0 0 0 0 0
FullNghs:      32572.7 ave       99454 max           0 min
Histogram: 6 2 3 5 4 2 0 0 0 2

Total # of neighbors = 781744
Ave neighs/atom = 193.88492
Neighbor list builds = 1459
Dangerous builds = 0
Total wall time: 0:33:07
