   2   2   0   0
  0.3943422E+02  0.2464000E-09  0.2464000E-09  0.1500000E-08  0.2000000E-15
  1.000000000000000E-004
  CAR 
 graphene                                
     15.45190107    -23.68608047  301     -2.79618282      1.00000000
    -23.686  0.0000E+00  0.0000E+00
    -23.556  0.0000E+00  0.0000E+00
    -23.425  0.0000E+00  0.0000E+00
    -23.295  0.0000E+00  0.0000E+00
    -23.164  0.0000E+00  0.0000E+00
    -23.034  0.0000E+00  0.0000E+00
    -22.903  0.0000E+00  0.0000E+00
    -22.773  0.0000E+00  0.0000E+00
    -22.642  0.0000E+00  0.0000E+00
    -22.512  0.0000E+00  0.0000E+00
    -22.381  0.0000E+00  0.0000E+00
    -22.251  0.0000E+00  0.0000E+00
    -22.121  0.3112E-12  0.4060E-13
    -21.990  0.3767E-05  0.4914E-06
    -21.860  0.5963E-03  0.7828E-04
    -21.729  0.2180E-02  0.3627E-03
    -21.599  0.2018E-02  0.6260E-03
    -21.468  0.2719E-02  0.9807E-03
    -21.338  0.1256E-03  0.9971E-03
    -21.207  0.4371E-02  0.1567E-02
    -21.077  0.1468E-02  0.1759E-02
    -20.946  0.1290E-02  0.1927E-02
    -20.816  0.7242E-03  0.2022E-02
    -20.686  0.5094E-02  0.2686E-02
    -20.555  0.1369E-02  0.2865E-02
    -20.425  0.1358E-02  0.3042E-02
    -20.294  0.1037E-02  0.3177E-02
    -20.164  0.2045E-02  0.3444E-02
    -20.033  0.2980E-02  0.3833E-02
    -19.903  0.4456E-02  0.4414E-02
    -19.772  0.9946E-04  0.4427E-02
    -19.642  0.4761E-03  0.4489E-02
    -19.511  0.1946E-02  0.4743E-02
    -19.381  0.2868E-02  0.5117E-02
    -19.250  0.4270E-02  0.5674E-02
    -19.120  0.4491E-03  0.5733E-02
    -18.990  0.4318E-02  0.6296E-02
    -18.859  0.4569E-04  0.6302E-02
    -18.729  0.4483E-05  0.6303E-02
    -18.598  0.2133E-02  0.6581E-02
    -18.468  0.4965E-02  0.7229E-02
    -18.337  0.3768E-02  0.7720E-02
    -18.207  0.1105E-02  0.7865E-02
    -18.076  0.1568E-03  0.7885E-02
    -17.946  0.4479E-02  0.8469E-02
    -17.815  0.1548E-03  0.8490E-02
    -17.685  0.4826E-05  0.8490E-02
    -17.554  0.2253E-02  0.8784E-02
    -17.424  0.7177E-02  0.9720E-02
    -17.294  0.5108E-03  0.9787E-02
    -17.163  0.4369E-02  0.1036E-01
    -17.033  0.5750E-04  0.1036E-01
    -16.902  0.2930E-03  0.1040E-01
    -16.772  0.4421E-02  0.1098E-01
    -16.641  0.7756E-04  0.1099E-01
    -16.511  0.2582E-02  0.1133E-01
    -16.380  0.4904E-02  0.1197E-01
    -16.250  0.5440E-02  0.1268E-01
    -16.119  0.2475E-03  0.1271E-01
    -15.989  0.8412E-09  0.1271E-01
    -15.858  0.6855E-07  0.1271E-01
    -15.728  0.5192E-03  0.1278E-01
    -15.598  0.1802E-02  0.1301E-01
    -15.467  0.3340E-02  0.1345E-01
    -15.337  0.2751E-02  0.1381E-01
    -15.206  0.4230E-02  0.1436E-01
    -15.076  0.5319E-03  0.1443E-01
    -14.945  0.5747E-05  0.1443E-01
    -14.815  0.3685E-02  0.1491E-01
    -14.684  0.3572E-02  0.1537E-01
    -14.554  0.2242E-02  0.1567E-01
    -14.423  0.2992E-02  0.1606E-01
    -14.293  0.4267E-02  0.1661E-01
    -14.163  0.4009E-05  0.1661E-01
    -14.032  0.6663E-06  0.1661E-01
    -13.902  0.2548E-02  0.1695E-01
    -13.771  0.6621E-02  0.1781E-01
    -13.641  0.4116E-03  0.1786E-01
    -13.510  0.4097E-03  0.1792E-01
    -13.380  0.4332E-02  0.1848E-01
    -13.249  0.4859E-04  0.1849E-01
    -13.119  0.4252E-03  0.1855E-01
    -12.988  0.3353E-02  0.1898E-01
    -12.858  0.6172E-02  0.1979E-01
    -12.727  0.2023E-02  0.2005E-01
    -12.597  0.3170E-05  0.2005E-01
    -12.467  0.9510E-11  0.2005E-01
    -12.336  0.6358E-04  0.2006E-01
    -12.206  0.6292E-02  0.2088E-01
    -12.075  0.6248E-02  0.2170E-01
    -11.945  0.4163E-02  0.2224E-01
    -11.814  0.1428E-05  0.2224E-01
    -11.684  0.4760E-10  0.2224E-01
    -11.553  0.9315E-04  0.2225E-01
    -11.423  0.4571E-02  0.2285E-01
    -11.292  0.4856E-02  0.2348E-01
    -11.162  0.7691E-04  0.2349E-01
    -11.031  0.3985E-02  0.2401E-01
    -10.901  0.1181E-02  0.2417E-01
    -10.771  0.6656E-02  0.2503E-01
    -10.640  0.1243E-02  0.2520E-01
    -10.510  0.3680E-02  0.2568E-01
    -10.379  0.2235E-02  0.2597E-01
    -10.249  0.2642E-02  0.2631E-01
    -10.118  0.1196E-02  0.2647E-01
     -9.988  0.3011E-02  0.2686E-01
     -9.857  0.1047E-01  0.2823E-01
     -9.727  0.6883E-02  0.2913E-01
     -9.596  0.3919E-02  0.2964E-01
     -9.466  0.4504E-02  0.3022E-01
     -9.335  0.3861E-02  0.3073E-01
     -9.205  0.2344E-02  0.3103E-01
     -9.075  0.9630E-02  0.3229E-01
     -8.944  0.9081E-02  0.3347E-01
     -8.814  0.5553E-02  0.3420E-01
     -8.683  0.5886E-02  0.3497E-01
     -8.553  0.6977E-02  0.3588E-01
     -8.422  0.8424E-02  0.3698E-01
     -8.292  0.1235E-02  0.3714E-01
     -8.161  0.3053E-02  0.3754E-01
     -8.031  0.1092E-01  0.3896E-01
     -7.900  0.3659E-02  0.3944E-01
     -7.770  0.1518E-02  0.3964E-01
     -7.640  0.4556E-03  0.3969E-01
     -7.509  0.8651E-02  0.4082E-01
     -7.379  0.7453E-02  0.4180E-01
     -7.248  0.2384E-02  0.4211E-01
     -7.118  0.4871E-02  0.4274E-01
     -6.987  0.1597E-03  0.4276E-01
     -6.857  0.4831E-02  0.4339E-01
     -6.726  0.6685E-02  0.4427E-01
     -6.596  0.2836E-02  0.4464E-01
     -6.465  0.1142E-02  0.4478E-01
     -6.335  0.3818E-02  0.4528E-01
     -6.204  0.4837E-02  0.4591E-01
     -6.074  0.6679E-02  0.4678E-01
     -5.944  0.2686E-02  0.4714E-01
     -5.813  0.2413E-02  0.4745E-01
     -5.683  0.5162E-02  0.4812E-01
     -5.552  0.2003E-02  0.4838E-01
     -5.422  0.6989E-03  0.4848E-01
     -5.291  0.2478E-02  0.4880E-01
     -5.161  0.5053E-02  0.4946E-01
     -5.030  0.4723E-02  0.5007E-01
     -4.900  0.3736E-02  0.5056E-01
     -4.769  0.4350E-02  0.5113E-01
     -4.639  0.1280E-03  0.5115E-01
     -4.508  0.3526E-03  0.5119E-01
     -4.378  0.2033E-02  0.5146E-01
     -4.248  0.9845E-03  0.5159E-01
     -4.117  0.6372E-02  0.5242E-01
     -3.987  0.2235E-02  0.5271E-01
     -3.856  0.3768E-06  0.5271E-01
     -3.726  0.2078E-15  0.5271E-01
     -3.595  0.6755E-07  0.5271E-01
     -3.465  0.8812E-03  0.5282E-01
     -3.334  0.1513E-02  0.5302E-01
     -3.204  0.9684E-06  0.5302E-01
     -3.073  0.5222E-03  0.5309E-01
     -2.943  0.1869E-02  0.5333E-01
     -2.812  0.4314E-05  0.5333E-01
     -2.682  0.4890E-13  0.5333E-01
     -2.552  0.0000E+00  0.5333E-01
     -2.421  0.0000E+00  0.5333E-01
     -2.291  0.0000E+00  0.5333E-01
     -2.160  0.0000E+00  0.5333E-01
     -2.030  0.1174E-13  0.5333E-01
     -1.899  0.2170E-05  0.5333E-01
     -1.769  0.1713E-02  0.5356E-01
     -1.638  0.6807E-03  0.5365E-01
     -1.508  0.1902E-03  0.5367E-01
     -1.377  0.2178E-02  0.5395E-01
     -1.247  0.2701E-04  0.5396E-01
     -1.117  0.2829E-11  0.5396E-01
     -0.986  0.1494E-05  0.5396E-01
     -0.856  0.4065E-02  0.5449E-01
     -0.725  0.8021E-02  0.5554E-01
     -0.595  0.3803E-02  0.5603E-01
     -0.464  0.2074E-02  0.5630E-01
     -0.334  0.2976E-06  0.5630E-01
     -0.203  0.1129E-02  0.5645E-01
     -0.073  0.5143E-02  0.5712E-01
      0.058  0.9140E-03  0.5724E-01
      0.188  0.8789E-04  0.5725E-01
      0.319  0.4441E-02  0.5783E-01
      0.449  0.1357E-02  0.5801E-01
      0.579  0.3445E-02  0.5846E-01
      0.710  0.2646E-02  0.5880E-01
      0.840  0.1072E-04  0.5880E-01
      0.971  0.4489E-03  0.5886E-01
      1.101  0.2257E-02  0.5916E-01
      1.232  0.1734E-02  0.5938E-01
      1.362  0.5895E-02  0.6015E-01
      1.493  0.4375E-02  0.6072E-01
      1.623  0.2058E-03  0.6075E-01
      1.754  0.5039E-02  0.6141E-01
      1.884  0.4365E-02  0.6198E-01
      2.015  0.8464E-03  0.6209E-01
      2.145  0.4324E-02  0.6265E-01
      2.275  0.4716E-02  0.6327E-01
      2.406  0.3841E-02  0.6377E-01
      2.536  0.7629E-02  0.6476E-01
      2.667  0.3779E-02  0.6526E-01
      2.797  0.2741E-02  0.6561E-01
      2.928  0.1205E-01  0.6718E-01
      3.058  0.1856E-02  0.6743E-01
      3.189  0.7376E-02  0.6839E-01
      3.319  0.7096E-02  0.6931E-01
      3.450  0.2759E-02  0.6967E-01
      3.580  0.8110E-02  0.7073E-01
      3.711  0.5545E-02  0.7146E-01
      3.841  0.4962E-03  0.7152E-01
      3.971  0.8064E-02  0.7257E-01
      4.102  0.7925E-02  0.7361E-01
      4.232  0.6253E-03  0.7369E-01
      4.363  0.8053E-02  0.7474E-01
      4.493  0.9716E-02  0.7601E-01
      4.624  0.6041E-02  0.7679E-01
      4.754  0.8251E-02  0.7787E-01
      4.885  0.8657E-02  0.7900E-01
      5.015  0.3608E-02  0.7947E-01
      5.146  0.9551E-02  0.8072E-01
      5.276  0.5386E-02  0.8142E-01
      5.406  0.1002E-01  0.8273E-01
      5.537  0.9383E-02  0.8395E-01
      5.667  0.1507E-01  0.8592E-01
      5.798  0.1512E-01  0.8789E-01
      5.928  0.2256E-01  0.9083E-01
      6.059  0.1605E-01  0.9293E-01
      6.189  0.8534E-02  0.9404E-01
      6.320  0.1282E-01  0.9571E-01
      6.450  0.1519E-01  0.9769E-01
      6.581  0.8587E-02  0.9881E-01
      6.711  0.9232E-02  0.1000E+00
      6.842  0.1181E-01  0.1016E+00
      6.972  0.1647E-01  0.1037E+00
      7.102  0.1984E-01  0.1063E+00
      7.233  0.1597E-01  0.1084E+00
      7.363  0.2328E-02  0.1087E+00
      7.494  0.1491E-01  0.1106E+00
      7.624  0.8984E-02  0.1118E+00
      7.755  0.9803E-02  0.1131E+00
      7.885  0.5940E-02  0.1139E+00
      8.016  0.9153E-02  0.1150E+00
      8.146  0.1287E-01  0.1167E+00
      8.277  0.1515E-01  0.1187E+00
      8.407  0.1680E-01  0.1209E+00
      8.538  0.1475E-01  0.1228E+00
      8.668  0.1194E-01  0.1244E+00
      8.798  0.1883E-01  0.1268E+00
      8.929  0.6731E-02  0.1277E+00
      9.059  0.1262E-01  0.1294E+00
      9.190  0.9317E-02  0.1306E+00
      9.320  0.4750E-02  0.1312E+00
      9.451  0.5002E-03  0.1313E+00
      9.581  0.6110E-02  0.1321E+00
      9.712  0.1181E-01  0.1336E+00
      9.842  0.1958E-01  0.1361E+00
      9.973  0.1233E-01  0.1378E+00
     10.103  0.1550E-01  0.1398E+00
     10.234  0.4753E-02  0.1404E+00
     10.364  0.1033E-01  0.1417E+00
     10.494  0.1308E-01  0.1435E+00
     10.625  0.1535E-01  0.1455E+00
     10.755  0.1260E-01  0.1471E+00
     10.886  0.9105E-02  0.1483E+00
     11.016  0.5447E-02  0.1490E+00
     11.147  0.1734E-01  0.1513E+00
     11.277  0.1061E-01  0.1526E+00
     11.408  0.2201E-02  0.1529E+00
     11.538  0.6669E-02  0.1538E+00
     11.669  0.7215E-02  0.1547E+00
     11.799  0.6857E-02  0.1556E+00
     11.929  0.1094E-01  0.1571E+00
     12.060  0.3667E-02  0.1575E+00
     12.190  0.6459E-02  0.1584E+00
     12.321  0.5173E-02  0.1591E+00
     12.451  0.4547E-02  0.1597E+00
     12.582  0.2624E-03  0.1597E+00
     12.712  0.2927E-09  0.1597E+00
     12.843  0.0000E+00  0.1597E+00
     12.973  0.0000E+00  0.1597E+00
     13.104  0.0000E+00  0.1597E+00
     13.234  0.0000E+00  0.1597E+00
     13.365  0.0000E+00  0.1597E+00
     13.495  0.5820E-09  0.1597E+00
     13.625  0.2152E-03  0.1597E+00
     13.756  0.2158E-02  0.1600E+00
     13.886  0.2260E-04  0.1600E+00
     14.017  0.1867E-11  0.1600E+00
     14.147  0.0000E+00  0.1600E+00
     14.278  0.0000E+00  0.1600E+00
     14.408  0.0000E+00  0.1600E+00
     14.539  0.0000E+00  0.1600E+00
     14.669  0.0000E+00  0.1600E+00
     14.800  0.0000E+00  0.1600E+00
     14.930  0.0000E+00  0.1600E+00
     15.061  0.0000E+00  0.1600E+00
     15.191  0.0000E+00  0.1600E+00
     15.321  0.0000E+00  0.1600E+00
     15.452  0.0000E+00  0.1600E+00
