    2    2  150    1
  0.3943422E+02  0.2464000E-09  0.2464000E-09  0.1500000E-08  0.2000000E-15
  1.000000000000000E-004
  CAR 
 graphene                                
      8     30     12
 
  0.0000000E+00  0.0000000E+00  0.0000000E+00  0.3906250E-02
    1      -21.907081   1.000000
    2      -10.218847   1.000000
    3       -5.447151   1.000000
    4       -5.447149   1.000000
    5        0.909919   0.000000
    6        1.961162   0.000000
    7        2.313873   0.000000
    8        4.208439   0.000000
    9        5.039288   0.000000
   10        6.004390   0.000000
   11        6.004392   0.000000
   12        8.121922   0.000000
 
  0.6250000E-01  0.0000000E+00  0.0000000E+00  0.2343750E-01
    1      -21.814091   1.000000
    2      -10.106118   1.000000
    3       -5.815022   1.000000
    4       -5.648031   1.000000
    5        1.036374   0.000000
    6        2.089338   0.000000
    7        2.443639   0.000000
    8        4.335820   0.000000
    9        5.163234   0.000000
   10        6.057589   0.000000
   11        6.409047   0.000000
   12        8.245486   0.000000
 
  0.1250000E+00  0.0000000E+00  0.0000000E+00  0.2343750E-01
    1      -21.535656   1.000000
    2       -9.769505   1.000000
    3       -6.809341   1.000000
    4       -6.165957   1.000000
    5        1.415905   0.000000
    6        2.473321   0.000000
    7        2.833037   0.000000
    8        4.717144   0.000000
    9        5.530556   0.000000
   10        6.126990   0.000000
   11        7.531952   0.000000
   12        7.968000   0.000000
 
  0.1875000E+00  0.0000000E+00  0.0000000E+00  0.2343750E-01
    1      -21.073463   1.000000
    2       -9.214254   1.000000
    3       -8.204694   1.000000
    4       -6.831133   1.000000
    5        2.048201   0.000000
    6        3.110547   0.000000
    7        3.482035   0.000000
    8        5.345918   0.000000
    9        5.955930   0.000000
   10        6.277157   0.000000
   11        6.616099   0.000000
   12        9.228543   0.000000
 
  0.2500000E+00  0.0000000E+00  0.0000000E+00  0.2343750E-01
    1      -20.430564   1.000000
    2       -9.799824   1.000000
    3       -8.451285   1.000000
    4       -7.500119   1.000000
    5        2.931507   0.000000
    6        3.977473   0.000000
    7        4.389721   0.000000
    8        4.970140   0.000000
    9        5.849818   0.000000
   10        6.258559   0.000000
   11        7.105870   0.000000
   12       10.072310   0.000000
 
  0.3125000E+00  0.0000000E+00  0.0000000E+00  0.2343750E-01
    1      -19.611912   1.000000
    2      -11.456785   1.000000
    3       -8.082134   1.000000
    4       -7.502886   1.000000
    5        3.142535   0.000000
    6        4.060592   0.000000
    7        5.180837   0.000000
    8        5.519234   0.000000
    9        5.691898   0.000000
   10        7.383959   0.000000
   11        8.242445   0.000000
   12       11.121053   0.000000
 
  0.3750000E+00  0.0000000E+00  0.0000000E+00  0.2343750E-01
    1      -18.626106   1.000000
    2      -13.086105   1.000000
    3       -8.525071   1.000000
    4       -6.420773   1.000000
    5        1.405962   0.000000
    6        5.314141   0.000000
    7        5.586531   0.000000
    8        6.558931   0.000000
    9        6.993730   0.000000
   10        8.751228   0.000000
   11        9.633286   0.000000
   12       12.260618   0.000000
 
  0.4375000E+00  0.0000000E+00  0.0000000E+00  0.2343750E-01
    1      -17.495013   1.000000
    2      -14.619235   1.000000
    3       -8.800276   1.000000
    4       -5.357249   1.000000
    5       -0.083759   0.000000
    6        5.315621   0.000000
    7        7.077457   0.000000
    8        8.172228   0.000000
    9        8.676907   0.000000
   10       10.314066   0.000000
   11       10.883664   0.000000
   12       11.266849   0.000000
 
  0.5000000E+00  0.0000000E+00  0.0000000E+00  0.1171875E-01
    1      -16.528649   1.000000
    2      -15.722095   1.000000
    3       -8.893457   1.000000
    4       -4.813880   1.000000
    5       -0.774184   0.000000
    6        5.276407   0.000000
    7        8.856242   0.000000
    8        8.948625   0.000000
    9        9.808411   0.000000
   10       10.158321   0.000000
   11       10.611673   0.000000
   12       10.620574   0.000000
 
  0.6250000E-01  0.6250000E-01  0.0000000E+00  0.2343750E-01
    1      -21.628378   1.000000
    2       -9.881428   1.000000
    3       -6.453895   1.000000
    4       -6.050040   1.000000
    5        1.289442   0.000000
    6        2.345445   0.000000
    7        2.703253   0.000000
    8        4.590246   0.000000
    9        5.411292   0.000000
   10        6.213280   0.000000
   11        7.060114   0.000000
   12        8.266751   0.000000
 
  0.1250000E+00  0.6250000E-01  0.0000000E+00  0.4687500E-01
    1      -21.258074   1.000000
    2       -9.435328   1.000000
    3       -7.573019   1.000000
    4       -6.718541   1.000000
    5        1.795693   0.000000
    6        2.856446   0.000000
    7        3.222619   0.000000
    8        5.097191   0.000000
    9        5.897581   0.000000
   10        6.393367   0.000000
   11        7.146977   0.000000
   12        8.197001   0.000000
 
  0.1875000E+00  0.6250000E-01  0.0000000E+00  0.4687500E-01
    1      -20.705555   1.000000
    2       -9.016307   1.000000
    3       -8.775489   1.000000
    4       -7.438539   1.000000
    5        2.554144   0.000000
    6        3.616828   0.000000
    7        4.001498   0.000000
    8        5.632219   0.000000
    9        5.900884   0.000000
   10        6.267067   0.000000
   11        6.754622   0.000000
   12        9.703968   0.000000
 
  0.2500000E+00  0.6250000E-01  0.0000000E+00  0.4687500E-01
    1      -19.974808   1.000000
    2      -10.614013   1.000000
    3       -8.092376   1.000000
    4       -7.917282   1.000000
    5        3.562088   0.000000
    6        3.932008   0.000000
    7        4.686030   0.000000
    8        5.038190   0.000000
    9        6.140820   0.000000
   10        6.873403   0.000000
   11        7.738528   0.000000
   12       10.639005   0.000000
 
  0.3125000E+00  0.6250000E-01  0.0000000E+00  0.4687500E-01
    1      -19.072398   1.000000
    2      -12.242709   1.000000
    3       -8.618788   1.000000
    4       -6.893429   1.000000
    5        2.216686   0.000000
    6        4.810971   0.000000
    7        5.920239   0.000000
    8        5.943903   0.000000
    9        6.353966   0.000000
   10        8.117509   0.000000
   11        9.001543   0.000000
   12       11.709470   0.000000
 
  0.3750000E+00  0.6250000E-01  0.0000000E+00  0.4687500E-01
    1      -18.011174   1.000000
    2      -13.819452   1.000000
    3       -8.984259   1.000000
    4       -5.788331   1.000000
    5        0.584125   0.000000
    6        5.755753   0.000000
    7        6.351603   0.000000
    8        7.412469   0.000000
    9        7.899931   0.000000
   10        9.572446   0.000000
   11       10.512498   0.000000
   12       11.877728   0.000000
 
  0.4375000E+00  0.6250000E-01  0.0000000E+00  0.4687500E-01
    1      -16.847537   1.000000
    2      -15.249356   1.000000
    3       -9.170907   1.000000
    4       -4.882670   1.000000
    5       -0.600639   0.000000
    6        5.692725   0.000000
    7        8.051149   0.000000
    8        9.088713   0.000000
    9        9.710093   0.000000
   10        9.957047   0.000000
   11       10.786386   0.000000
   12       11.438631   0.000000
 
  0.1250000E+00  0.1250000E+00  0.0000000E+00  0.2343750E-01
    1      -20.797462   1.000000
    2       -8.884152   1.000000
    3       -8.583631   1.000000
    4       -7.599692   1.000000
    5        2.428589   0.000000
    6        3.492858   0.000000
    7        3.872137   0.000000
    8        5.728016   0.000000
    9        5.940654   0.000000
   10        6.516914   0.000000
   11        6.967120   0.000000
   12        8.770986   0.000000
 
  0.1875000E+00  0.1250000E+00  0.0000000E+00  0.4687500E-01
    1      -20.157152   1.000000
    2       -9.876136   1.000000
    3       -8.458825   1.000000
    4       -8.126744   1.000000
    5        3.312631   0.000000
    6        4.343192   0.000000
    7        4.514479   0.000000
    8        4.781130   0.000000
    9        6.604836   0.000000
   10        7.119406   0.000000
   11        7.536780   0.000000
   12        9.762777   0.000000
 
  0.2500000E+00  0.1250000E+00  0.0000000E+00  0.4687500E-01
    1      -19.342594   1.000000
    2      -11.371370   1.000000
    3       -9.131233   1.000000
    4       -7.184518   1.000000
    5        2.867286   0.000000
    6        4.443980   0.000000
    7        5.516213   0.000000
    8        5.947979   0.000000
    9        7.111346   0.000000
   10        7.714767   0.000000
   11        8.626514   0.000000
   12       11.151602   0.000000
 
  0.3125000E+00  0.1250000E+00  0.0000000E+00  0.4687500E-01
    1      -18.363266   1.000000
    2      -12.917341   1.000000
    3       -9.611124   1.000000
    4       -6.105900   1.000000
    5        1.248340   0.000000
    6        5.813041   0.000000
    7        6.871336   0.000000
    8        6.959381   0.000000
    9        7.387868   0.000000
   10        9.020647   0.000000
   11       10.007658   0.000000
   12       11.879934   0.000000
 
  0.3750000E+00  0.1250000E+00  0.0000000E+00  0.4687500E-01
    1      -17.242883   1.000000
    2      -14.404259   1.000000
    3       -9.900529   1.000000
    4       -5.033468   1.000000
    5       -0.177804   0.000000
    6        6.819681   0.000000
    7        7.445661   0.000000
    8        8.387405   0.000000
    9        9.063191   0.000000
   10       10.332013   0.000000
   11       11.071817   0.000000
   12       11.628739   0.000000
 
  0.4375000E+00  0.1250000E+00  0.0000000E+00  0.2343750E-01
    1      -16.294792   1.000000
    2      -15.478455   1.000000
    3       -9.997373   1.000000
    4       -4.471398   1.000000
    5       -0.862863   0.000000
    6        6.789229   0.000000
    7        9.171287   0.000000
    8        9.287575   0.000000
    9        9.519434   0.000000
   10       10.544228   0.000000
   11       10.988908   0.000000
   12       11.003026   0.000000
 
  0.1875000E+00  0.1875000E+00  0.0000000E+00  0.2343750E-01
    1      -19.433031   1.000000
    2      -10.838999   1.000000
    3       -9.564154   1.000000
    4       -7.282716   1.000000
    5        3.130718   0.000000
    6        4.320008   0.000000
    7        5.372587   0.000000
    8        5.819999   0.000000
    9        7.573867   0.000000
   10        8.135735   0.000000
   11        8.560318   0.000000
   12        9.843842   0.000000
 
  0.2500000E+00  0.1875000E+00  0.0000000E+00  0.4687500E-01
    1      -18.541155   1.000000
    2      -12.066355   1.000000
    3      -10.376061   1.000000
    4       -6.272607   1.000000
    5        1.688656   0.000000
    6        5.569925   0.000000
    7        6.579400   0.000000
    8        7.116384   0.000000
    9        8.519980   0.000000
   10        8.716420   0.000000
   11        9.762465   0.000000
   12       10.748747   0.000000
 
  0.3125000E+00  0.1875000E+00  0.0000000E+00  0.4687500E-01
    1      -17.496970   1.000000
    2      -13.461808   1.000000
    3      -10.846589   1.000000
    4       -5.167415   1.000000
    5        0.261965   0.000000
    6        7.048349   0.000000
    7        7.893499   0.000000
    8        8.432533   0.000000
    9        8.684367   0.000000
   10        9.800497   0.000000
   11       11.226530   0.000000
   12       11.530977   0.000000
 
  0.3750000E+00  0.1875000E+00  0.0000000E+00  0.4687500E-01
    1      -16.362718   1.000000
    2      -14.802852   1.000000
    3      -11.065931   1.000000
    4       -4.218205   1.000000
    5       -0.860342   0.000000
    6        8.337431   0.000000
    7        8.748397   0.000000
    8        8.832886   0.000000
    9       10.450845   0.000000
   10       10.507998   0.000000
   11       10.666132   0.000000
   12       12.195859   0.000000
 
  0.2500000E+00  0.2500000E+00  0.0000000E+00  0.2343750E-01
    1      -17.583245   1.000000
    2      -12.833726   1.000000
    3      -11.489573   1.000000
    4       -5.218953   1.000000
    5        0.452837   0.000000
    6        6.926677   0.000000
    7        7.703648   0.000000
    8        8.539857   0.000000
    9        9.594734   0.000000
   10        9.895987   0.000000
   11       10.569133   0.000000
   12       11.143652   0.000000
 
  0.3125000E+00  0.2500000E+00  0.0000000E+00  0.4687500E-01
    1      -16.498655   1.000000
    2      -13.903535   1.000000
    3      -12.096700   1.000000
    4       -4.120246   1.000000
    5       -0.754094   0.000000
    6        8.301346   0.000000
    7        8.479600   0.000000
    8       10.025030   0.000000
    9       10.229418   0.000000
   10       10.441932   0.000000
   11       11.095500   0.000000
   12       12.394747   0.000000
 
  0.3750000E+00  0.2500000E+00  0.0000000E+00  0.2343750E-01
    1      -15.594801   1.000000
    2      -14.845279   1.000000
    3      -12.262140   1.000000
    4       -3.452861   1.000000
    5       -1.458073   0.000000
    6        8.333260   0.000000
    7        9.929571   0.000000
    8       10.016211   0.000000
    9       10.265893   0.000000
   10       11.699585   0.000000
   11       12.096224   0.000000
   12       12.136781   0.000000
 
  0.3125000E+00  0.3125000E+00  0.0000000E+00  0.2343750E-01
    1      -15.441892   1.000000
    2      -14.435100   1.000000
    3      -12.991541   1.000000
    4       -3.045873   1.000000
    5       -1.788981   0.000000
    6        8.062455   0.000000
    7        9.968740   0.000000
    8       10.784751   0.000000
    9       11.043092   0.000000
   10       11.888677   0.000000
   11       11.994199   0.000000
   12       13.672902   0.000000
