       N       E                     dE             d eps       ncg     rms          rms(c)
DAV:   1     0.517130489998E+02    0.51713E+02   -0.48559E+03   720   0.822E+02
DAV:   2    -0.188303164633E+02   -0.70543E+02   -0.60275E+02   936   0.113E+02
DAV:   3    -0.216407026769E+02   -0.28104E+01   -0.28104E+01  1032   0.312E+01
DAV:   4    -0.216545222807E+02   -0.13820E-01   -0.13820E-01  1068   0.244E+00
DAV:   5    -0.216545372027E+02   -0.14922E-04   -0.14922E-04  1056   0.840E-02    0.572E+00
DAV:   6    -0.205921158821E+02    0.10624E+01   -0.11069E+00   936   0.496E+00    0.294E+00
DAV:   7    -0.202086582446E+02    0.38346E+00   -0.11891E+00  1008   0.503E+00    0.518E-01
DAV:   8    -0.201997639353E+02    0.88943E-02   -0.83054E-03   972   0.624E-01    0.851E-02
DAV:   9    -0.201980827003E+02    0.16812E-02   -0.18451E-03   948   0.172E-01    0.648E-02
DAV:  10    -0.201966920155E+02    0.13907E-02   -0.26009E-03   732   0.166E-01    0.254E-02
DAV:  11    -0.201973341198E+02   -0.64210E-03   -0.16594E-04   816   0.446E-02    0.127E-02
DAV:  12    -0.201980498627E+02   -0.71574E-03   -0.15458E-04   804   0.359E-02    0.863E-03
DAV:  13    -0.201985090538E+02   -0.45919E-03   -0.10400E-04   840   0.254E-02    0.358E-03
DAV:  14    -0.201986228198E+02   -0.11377E-03   -0.53532E-06   840   0.922E-03    0.277E-03
DAV:  15    -0.201986498352E+02   -0.27015E-04   -0.18154E-06   804   0.451E-03    0.597E-04
DAV:  16    -0.201986555698E+02   -0.57345E-05   -0.21492E-07   756   0.160E-03
   1 F= -.20198656E+02 E0= -.20198656E+02  d E =-.201987E+02
       N       E                     dE             d eps       ncg     rms          rms(c)
DAV:   1    -0.202077528581E+02   -0.91030E-02   -0.22147E-01   792   0.337E+00    0.271E-01
DAV:   2    -0.202062277539E+02    0.15251E-02   -0.20104E-03   732   0.325E-01    0.162E-01
DAV:   3    -0.202052722632E+02    0.95549E-03   -0.12174E-03   924   0.182E-01    0.985E-03
DAV:   4    -0.202052783869E+02   -0.61236E-05   -0.11213E-05   840   0.214E-02
   2 F= -.20205278E+02 E0= -.20205278E+02  d E =-.662282E-02
       N       E                     dE             d eps       ncg     rms          rms(c)
DAV:   1    -0.202063157431E+02   -0.10435E-02   -0.14249E-02   840   0.849E-01    0.684E-02
DAV:   2    -0.202062259693E+02    0.89774E-04   -0.14208E-04   720   0.837E-02    0.411E-02
DAV:   3    -0.202061802523E+02    0.45717E-04   -0.74026E-05   744   0.453E-02    0.254E-03
DAV:   4    -0.202061837871E+02   -0.35349E-05   -0.11863E-06   924   0.639E-03
   3 F= -.20206184E+02 E0= -.20206184E+02  d E =-.752822E-02
       N       E                     dE             d eps       ncg     rms          rms(c)
DAV:   1    -0.202061885455E+02   -0.82932E-05   -0.43600E-06   840   0.146E-02    0.126E-03
DAV:   2    -0.202061892867E+02   -0.74120E-06   -0.38517E-08   924   0.131E-03
   4 F= -.20206189E+02 E0= -.20206189E+02  d E =-.753372E-02
