   2   2   0   0
  0.3885500E+02  0.2445837E-09  0.2445837E-09  0.1500000E-08  0.2000000E-15
  1.000000000000000E-004
  CAR 
 graphene                                
     12.41931572    -23.54198174  301     -2.78931633      1.00000000
    -23.542  0.0000E+00  0.0000E+00
    -23.422  0.0000E+00  0.0000E+00
    -23.302  0.0000E+00  0.0000E+00
    -23.182  0.0000E+00  0.0000E+00
    -23.062  0.0000E+00  0.0000E+00
    -22.943  0.0000E+00  0.0000E+00
    -22.823  0.0000E+00  0.0000E+00
    -22.703  0.0000E+00  0.0000E+00
    -22.583  0.0000E+00  0.0000E+00
    -22.463  0.0000E+00  0.0000E+00
    -22.343  0.0000E+00  0.0000E+00
    -22.223  0.0000E+00  0.0000E+00
    -22.104  0.6276E-11  0.7524E-12
    -21.984  0.6728E-05  0.8066E-06
    -21.864  0.5920E-03  0.7177E-04
    -21.744  0.2384E-02  0.3575E-03
    -21.624  0.1514E-02  0.5390E-03
    -21.504  0.3277E-02  0.9319E-03
    -21.384  0.4824E-03  0.9897E-03
    -21.264  0.2249E-02  0.1259E-02
    -21.145  0.3019E-02  0.1621E-02
    -21.025  0.2336E-02  0.1901E-02
    -20.905  0.2190E-03  0.1927E-02
    -20.785  0.1733E-02  0.2135E-02
    -20.665  0.5434E-02  0.2787E-02
    -20.545  0.6522E-03  0.2865E-02
    -20.425  0.1461E-02  0.3040E-02
    -20.305  0.1144E-02  0.3177E-02
    -20.186  0.1106E-02  0.3310E-02
    -20.066  0.4110E-02  0.3802E-02
    -19.946  0.4144E-02  0.4299E-02
    -19.826  0.1068E-02  0.4427E-02
    -19.706  0.1026E-04  0.4428E-02
    -19.586  0.1991E-02  0.4667E-02
    -19.466  0.1061E-02  0.4794E-02
    -19.346  0.4519E-02  0.5336E-02
    -19.227  0.2844E-02  0.5677E-02
    -19.107  0.8705E-03  0.5781E-02
    -18.987  0.4306E-02  0.6297E-02
    -18.867  0.4022E-04  0.6302E-02
    -18.747  0.8148E-06  0.6302E-02
    -18.627  0.1310E-02  0.6459E-02
    -18.507  0.5626E-02  0.7134E-02
    -18.388  0.2170E-02  0.7394E-02
    -18.268  0.3909E-02  0.7862E-02
    -18.148  0.1805E-04  0.7865E-02
    -18.028  0.1660E-02  0.8064E-02
    -17.908  0.3545E-02  0.8488E-02
    -17.788  0.9180E-05  0.8490E-02
    -17.668  0.2104E-04  0.8492E-02
    -17.548  0.2713E-02  0.8817E-02
    -17.429  0.7478E-02  0.9714E-02
    -17.309  0.3798E-03  0.9759E-02
    -17.189  0.4721E-02  0.1033E-01
    -17.069  0.3293E-03  0.1036E-01
    -16.949  0.1060E-04  0.1037E-01
    -16.829  0.3627E-02  0.1080E-01
    -16.709  0.1577E-02  0.1099E-01
    -16.589  0.8244E-04  0.1100E-01
    -16.470  0.5307E-02  0.1164E-01
    -16.350  0.4637E-02  0.1219E-01
    -16.230  0.4225E-02  0.1270E-01
    -16.110  0.8685E-04  0.1271E-01
    -15.990  0.2246E-09  0.1271E-01
    -15.870  0.1750E-07  0.1271E-01
    -15.750  0.2731E-03  0.1274E-01
    -15.630  0.1431E-02  0.1291E-01
    -15.511  0.2720E-02  0.1324E-01
    -15.391  0.4490E-02  0.1378E-01
    -15.271  0.1614E-02  0.1397E-01
    -15.151  0.3797E-02  0.1443E-01
    -15.031  0.1440E-04  0.1443E-01
    -14.911  0.8545E-04  0.1444E-01
    -14.791  0.5611E-02  0.1511E-01
    -14.672  0.2302E-02  0.1539E-01
    -14.552  0.2356E-02  0.1567E-01
    -14.432  0.2597E-02  0.1598E-01
    -14.312  0.5272E-02  0.1661E-01
    -14.192  0.2459E-04  0.1661E-01
    -14.072  0.4690E-08  0.1661E-01
    -13.952  0.4337E-03  0.1667E-01
    -13.832  0.6507E-02  0.1745E-01
    -13.713  0.3480E-02  0.1786E-01
    -13.593  0.7245E-05  0.1786E-01
    -13.473  0.1955E-02  0.1810E-01
    -13.353  0.3253E-02  0.1849E-01
    -13.233  0.5581E-05  0.1849E-01
    -13.113  0.5729E-03  0.1856E-01
    -12.993  0.3347E-02  0.1896E-01
    -12.873  0.6275E-02  0.1971E-01
    -12.754  0.2809E-02  0.2005E-01
    -12.634  0.3114E-04  0.2005E-01
    -12.514  0.2099E-10  0.2005E-01
    -12.394  0.2909E-06  0.2005E-01
    -12.274  0.1916E-02  0.2028E-01
    -12.154  0.6168E-02  0.2102E-01
    -12.034  0.8993E-02  0.2210E-01
    -11.914  0.1172E-02  0.2224E-01
    -11.795  0.4810E-07  0.2224E-01
    -11.675  0.2039E-09  0.2224E-01
    -11.555  0.8989E-04  0.2225E-01
    -11.435  0.4437E-02  0.2278E-01
    -11.315  0.5605E-02  0.2345E-01
    -11.195  0.2970E-03  0.2349E-01
    -11.075  0.2040E-02  0.2373E-01
    -10.956  0.3175E-02  0.2411E-01
    -10.836  0.4615E-02  0.2467E-01
    -10.716  0.3213E-02  0.2505E-01
    -10.596  0.3601E-02  0.2548E-01
    -10.476  0.1615E-02  0.2568E-01
    -10.356  0.3691E-02  0.2612E-01
    -10.236  0.1644E-02  0.2632E-01
    -10.116  0.1296E-02  0.2647E-01
     -9.997  0.2948E-02  0.2683E-01
     -9.877  0.9193E-02  0.2793E-01
     -9.757  0.9079E-02  0.2902E-01
     -9.637  0.2495E-02  0.2932E-01
     -9.517  0.6363E-02  0.3008E-01
     -9.397  0.4679E-02  0.3064E-01
     -9.277  0.8474E-03  0.3074E-01
     -9.157  0.6899E-02  0.3157E-01
     -9.038  0.7758E-02  0.3250E-01
     -8.918  0.9287E-02  0.3361E-01
     -8.798  0.6020E-02  0.3433E-01
     -8.678  0.5363E-02  0.3498E-01
     -8.558  0.7201E-02  0.3584E-01
     -8.438  0.8377E-02  0.3684E-01
     -8.318  0.2438E-02  0.3714E-01
     -8.198  0.1588E-02  0.3733E-01
     -8.079  0.1054E-01  0.3859E-01
     -7.959  0.4126E-02  0.3908E-01
     -7.839  0.4529E-02  0.3963E-01
     -7.719  0.7256E-04  0.3964E-01
     -7.599  0.2501E-02  0.3994E-01
     -7.479  0.9748E-02  0.4110E-01
     -7.359  0.5969E-02  0.4182E-01
     -7.240  0.2646E-02  0.4214E-01
     -7.120  0.5026E-02  0.4274E-01
     -7.000  0.1851E-03  0.4276E-01
     -6.880  0.3624E-02  0.4320E-01
     -6.760  0.7134E-02  0.4405E-01
     -6.640  0.4805E-02  0.4463E-01
     -6.520  0.1540E-03  0.4465E-01
     -6.400  0.4210E-02  0.4515E-01
     -6.281  0.3038E-02  0.4551E-01
     -6.161  0.4848E-02  0.4610E-01
     -6.041  0.7452E-02  0.4699E-01
     -5.921  0.1229E-02  0.4714E-01
     -5.801  0.3532E-02  0.4756E-01
     -5.681  0.4723E-02  0.4813E-01
     -5.561  0.2151E-02  0.4838E-01
     -5.441  0.5256E-03  0.4845E-01
     -5.322  0.2557E-02  0.4875E-01
     -5.202  0.3037E-02  0.4912E-01
     -5.082  0.5589E-02  0.4979E-01
     -4.962  0.4768E-02  0.5036E-01
     -4.842  0.4868E-02  0.5094E-01
     -4.722  0.1697E-02  0.5115E-01
     -4.602  0.6765E-05  0.5115E-01
     -4.482  0.9677E-03  0.5126E-01
     -4.363  0.1636E-02  0.5146E-01
     -4.243  0.1251E-02  0.5161E-01
     -4.123  0.6368E-02  0.5237E-01
     -4.003  0.2810E-02  0.5271E-01
     -3.883  0.2512E-05  0.5271E-01
     -3.763  0.5762E-13  0.5271E-01
     -3.643  0.8448E-10  0.5271E-01
     -3.524  0.5729E-04  0.5272E-01
     -3.404  0.2330E-02  0.5299E-01
     -3.284  0.2201E-03  0.5302E-01
     -3.164  0.1039E-05  0.5302E-01
     -3.044  0.1340E-02  0.5318E-01
     -2.924  0.1265E-02  0.5333E-01
     -2.804  0.7968E-06  0.5333E-01
     -2.684  0.1211E-13  0.5333E-01
     -2.565  0.0000E+00  0.5333E-01
     -2.445  0.0000E+00  0.5333E-01
     -2.325  0.0000E+00  0.5333E-01
     -2.205  0.0000E+00  0.5333E-01
     -2.085  0.0000E+00  0.5333E-01
     -1.965  0.7434E-09  0.5333E-01
     -1.845  0.1398E-03  0.5335E-01
     -1.725  0.2369E-02  0.5363E-01
     -1.606  0.9792E-04  0.5365E-01
     -1.486  0.5523E-03  0.5371E-01
     -1.366  0.2042E-02  0.5396E-01
     -1.246  0.1249E-04  0.5396E-01
     -1.126  0.2890E-11  0.5396E-01
     -1.006  0.1495E-06  0.5396E-01
     -0.886  0.1822E-02  0.5418E-01
     -0.766  0.8581E-02  0.5521E-01
     -0.647  0.4417E-02  0.5573E-01
     -0.527  0.4632E-02  0.5629E-01
     -0.407  0.9967E-04  0.5630E-01
     -0.287  0.4933E-05  0.5630E-01
     -0.167  0.3207E-02  0.5669E-01
     -0.047  0.4203E-02  0.5719E-01
      0.073  0.4054E-03  0.5724E-01
      0.192  0.1232E-03  0.5725E-01
      0.312  0.4675E-02  0.5781E-01
      0.432  0.1129E-02  0.5795E-01
      0.552  0.2813E-02  0.5829E-01
      0.672  0.4259E-02  0.5880E-01
      0.792  0.3572E-04  0.5880E-01
      0.912  0.2044E-03  0.5883E-01
      1.032  0.1266E-02  0.5898E-01
      1.151  0.1583E-02  0.5917E-01
      1.271  0.4513E-02  0.5971E-01
      1.391  0.4690E-02  0.6027E-01
      1.511  0.3801E-02  0.6073E-01
      1.631  0.2743E-03  0.6076E-01
      1.751  0.5179E-02  0.6138E-01
      1.871  0.4876E-02  0.6197E-01
      1.991  0.4999E-03  0.6203E-01
      2.110  0.3956E-02  0.6250E-01
      2.230  0.4660E-02  0.6306E-01
      2.350  0.2842E-02  0.6340E-01
      2.470  0.4964E-02  0.6399E-01
      2.590  0.8259E-02  0.6498E-01
      2.710  0.1873E-02  0.6521E-01
      2.830  0.2415E-02  0.6550E-01
      2.950  0.1304E-01  0.6706E-01
      3.069  0.3079E-02  0.6743E-01
      3.189  0.7054E-02  0.6828E-01
      3.309  0.3184E-02  0.6866E-01
      3.429  0.7654E-02  0.6957E-01
      3.549  0.4159E-02  0.7007E-01
      3.669  0.1059E-01  0.7134E-01
      3.789  0.9678E-03  0.7146E-01
      3.908  0.1313E-02  0.7162E-01
      4.028  0.8459E-02  0.7263E-01
      4.148  0.6603E-02  0.7342E-01
      4.268  0.2088E-02  0.7367E-01
      4.388  0.7373E-02  0.7456E-01
      4.508  0.1086E-01  0.7586E-01
      4.628  0.5562E-02  0.7652E-01
      4.748  0.6960E-02  0.7736E-01
      4.867  0.8141E-02  0.7833E-01
      4.987  0.7217E-02  0.7920E-01
      5.107  0.1230E-02  0.7935E-01
      5.227  0.9966E-02  0.8054E-01
      5.347  0.8736E-02  0.8159E-01
      5.467  0.4692E-02  0.8215E-01
      5.587  0.1185E-01  0.8357E-01
      5.707  0.1368E-01  0.8521E-01
      5.826  0.1072E-01  0.8650E-01
      5.946  0.7591E-02  0.8741E-01
      6.066  0.5955E-02  0.8812E-01
      6.186  0.3513E-02  0.8854E-01
      6.306  0.4724E-03  0.8860E-01
      6.426  0.4886E-02  0.8918E-01
      6.546  0.6017E-02  0.8990E-01
      6.666  0.6791E-02  0.9072E-01
      6.785  0.2090E-02  0.9097E-01
      6.905  0.6729E-02  0.9178E-01
      7.025  0.8149E-02  0.9275E-01
      7.145  0.6494E-02  0.9353E-01
      7.265  0.3501E-02  0.9395E-01
      7.385  0.2720E-02  0.9428E-01
      7.505  0.1090E-01  0.9558E-01
      7.624  0.3844E-02  0.9604E-01
      7.744  0.2209E-02  0.9631E-01
      7.864  0.1274E-02  0.9646E-01
      7.984  0.4460E-02  0.9700E-01
      8.104  0.7033E-02  0.9784E-01
      8.224  0.3022E-02  0.9820E-01
      8.344  0.9827E-02  0.9938E-01
      8.464  0.1402E-01  0.1011E+00
      8.583  0.5067E-02  0.1017E+00
      8.703  0.2578E-02  0.1020E+00
      8.823  0.7444E-02  0.1029E+00
      8.943  0.4858E-02  0.1035E+00
      9.063  0.1683E-02  0.1037E+00
      9.183  0.5889E-02  0.1044E+00
      9.303  0.2481E-02  0.1047E+00
      9.423  0.1132E-02  0.1048E+00
      9.542  0.4902E-06  0.1048E+00
      9.662  0.4912E-14  0.1048E+00
      9.782  0.3496E-07  0.1048E+00
      9.902  0.6267E-03  0.1049E+00
     10.022  0.6077E-02  0.1056E+00
     10.142  0.6033E-02  0.1063E+00
     10.262  0.2978E-03  0.1064E+00
     10.382  0.1739E-08  0.1064E+00
     10.501  0.1447E-17  0.1064E+00
     10.621  0.4922E-08  0.1064E+00
     10.741  0.2837E-03  0.1064E+00
     10.861  0.2283E-02  0.1067E+00
     10.981  0.4036E-04  0.1067E+00
     11.101  0.3766E-10  0.1067E+00
     11.221  0.0000E+00  0.1067E+00
     11.340  0.0000E+00  0.1067E+00
     11.460  0.0000E+00  0.1067E+00
     11.580  0.0000E+00  0.1067E+00
     11.700  0.0000E+00  0.1067E+00
     11.820  0.0000E+00  0.1067E+00
     11.940  0.0000E+00  0.1067E+00
     12.060  0.0000E+00  0.1067E+00
     12.180  0.0000E+00  0.1067E+00
     12.299  0.0000E+00  0.1067E+00
     12.419  0.0000E+00  0.1067E+00
