    2    2  150    1
  0.3885500E+02  0.2445837E-09  0.2445837E-09  0.1500000E-08  0.2000000E-15
  1.000000000000000E-004
  CAR 
 graphene                                
      8     30      8
 
  0.0000000E+00  0.0000000E+00  0.0000000E+00  0.3906250E-02
    1      -21.907377   1.000000
    2      -10.218453   1.000000
    3       -5.446665   1.000000
    4       -5.446647   1.000000
    5        0.914365   0.000000
    6        1.978353   0.000000
    7        2.446809   0.000000
    8        4.331633   0.000000
 
  0.6250000E-01  0.1167585E-17  0.0000000E+00  0.2343750E-01
    1      -21.814378   1.000000
    2      -10.105770   1.000000
    3       -5.814514   1.000000
    4       -5.647537   1.000000
    5        1.040746   0.000000
    6        2.106421   0.000000
    7        2.576626   0.000000
    8        4.458998   0.000000
 
  0.1250000E+00  0.2335169E-17  0.0000000E+00  0.2343750E-01
    1      -21.535940   1.000000
    2       -9.769110   1.000000
    3       -6.808898   1.000000
    4       -6.165506   1.000000
    5        1.420056   0.000000
    6        2.490067   0.000000
    7        2.966171   0.000000
    8        4.840269   0.000000
 
  0.1875000E+00 -0.4982948E-17  0.0000000E+00  0.2343750E-01
    1      -21.073718   1.000000
    2       -9.213846   1.000000
    3       -8.204311   1.000000
    4       -6.830725   1.000000
    5        2.051998   0.000000
    6        3.126633   0.000000
    7        3.615402   0.000000
    8        5.468705   0.000000
 
  0.2500000E+00  0.4670338E-17  0.0000000E+00  0.2343750E-01
    1      -20.430778   1.000000
    2       -9.799485   1.000000
    3       -8.450888   1.000000
    4       -7.499753   1.000000
    5        2.934822   0.000000
    6        3.991443   0.000000
    7        4.523392   0.000000
    8        4.974344   0.000000
 
  0.3125000E+00  0.2051086E-16  0.0000000E+00  0.2343750E-01
    1      -19.612075   1.000000
    2      -11.456492   1.000000
    3       -8.081760   1.000000
    4       -7.502428   1.000000
    5        3.143176   0.000000
    6        4.063254   0.000000
    7        5.195737   0.000000
    8        5.603314   0.000000
 
  0.3750000E+00 -0.9965896E-17  0.0000000E+00  0.2343750E-01
    1      -18.626210   1.000000
    2      -13.085845   1.000000
    3       -8.524691   1.000000
    4       -6.420314   1.000000
    5        1.406626   0.000000
    6        5.315026   0.000000
    7        5.588958   0.000000
    8        6.571896   0.000000
 
  0.4375000E+00 -0.3126100E-18  0.0000000E+00  0.2343750E-01
    1      -17.495024   1.000000
    2      -14.618961   1.000000
    3       -8.799853   1.000000
    4       -5.356755   1.000000
    5       -0.083122   0.000000
    6        5.316471   0.000000
    7        7.078882   0.000000
    8        8.182531   0.000000
 
  0.5000000E+00  0.9340676E-17  0.0000000E+00  0.1171875E-01
    1      -16.528637   1.000000
    2      -15.721796   1.000000
    3       -8.893083   1.000000
    4       -4.813360   1.000000
    5       -0.773573   0.000000
    6        5.277235   0.000000
    7        8.856579   0.000000
    8        8.949297   0.000000
 
  0.6250000E-01  0.6250000E-01  0.0000000E+00  0.2343750E-01
    1      -21.628657   1.000000
    2       -9.881055   1.000000
    3       -6.453432   1.000000
    4       -6.049559   1.000000
    5        1.293668   0.000000
    6        2.362307   0.000000
    7        2.836340   0.000000
    8        4.713396   0.000000
 
  0.1250000E+00  0.6250000E-01  0.0000000E+00  0.4687500E-01
    1      -21.258334   1.000000
    2       -9.434907   1.000000
    3       -7.572579   1.000000
    4       -6.718128   1.000000
    5        1.799638   0.000000
    6        2.872826   0.000000
    7        3.355903   0.000000
    8        5.220222   0.000000
 
  0.1875000E+00  0.6250000E-01  0.0000000E+00  0.4687500E-01
    1      -20.705792   1.000000
    2       -9.015951   1.000000
    3       -8.775070   1.000000
    4       -7.438166   1.000000
    5        2.557678   0.000000
    6        3.632250   0.000000
    7        4.135086   0.000000
    8        5.648943   0.000000
 
  0.2500000E+00  0.6250000E-01  0.0000000E+00  0.4687500E-01
    1      -19.974991   1.000000
    2      -10.613686   1.000000
    3       -8.091999   1.000000
    4       -7.916845   1.000000
    5        3.565085   0.000000
    6        3.932805   0.000000
    7        4.701199   0.000000
    8        5.172015   0.000000
 
  0.3125000E+00  0.6250000E-01  0.0000000E+00  0.4687500E-01
    1      -19.072521   1.000000
    2      -12.242444   1.000000
    3       -8.618473   1.000000
    4       -6.892988   1.000000
    5        2.217325   0.000000
    6        4.813226   0.000000
    7        5.948190   0.000000
    8        6.485123   0.000000
 
  0.3750000E+00  0.6250000E-01  0.0000000E+00  0.4687500E-01
    1      -18.011216   1.000000
    2      -13.819152   1.000000
    3       -8.983889   1.000000
    4       -5.787839   1.000000
    5        0.584768   0.000000
    6        5.756547   0.000000
    7        6.353529   0.000000
    8        7.423505   0.000000
 
  0.4375000E+00  0.6250000E-01  0.0000000E+00  0.4687500E-01
    1      -16.847500   1.000000
    2      -15.249113   1.000000
    3       -9.170525   1.000000
    4       -4.882147   1.000000
    5       -0.600020   0.000000
    6        5.693574   0.000000
    7        8.052029   0.000000
    8        9.095664   0.000000
 
  0.1250000E+00  0.1250000E+00  0.0000000E+00  0.2343750E-01
    1      -20.797694   1.000000
    2       -8.883711   1.000000
    3       -8.583246   1.000000
    4       -7.599286   1.000000
    5        2.432203   0.000000
    6        3.508561   0.000000
    7        4.005654   0.000000
    8        5.850880   0.000000
 
  0.1875000E+00  0.1250000E+00  0.0000000E+00  0.4687500E-01
    1      -20.157341   1.000000
    2       -9.875811   1.000000
    3       -8.458464   1.000000
    4       -8.126318   1.000000
    5        3.315788   0.000000
    6        4.353830   0.000000
    7        4.519340   0.000000
    8        4.914977   0.000000
 
  0.2500000E+00  0.1250000E+00  0.0000000E+00  0.4687500E-01
    1      -19.342724   1.000000
    2      -11.371072   1.000000
    3       -9.130884   1.000000
    4       -7.184071   1.000000
    5        2.867963   0.000000
    6        4.446553   0.000000
    7        5.529357   0.000000
    8        6.082159   0.000000
 
  0.3125000E+00  0.1250000E+00  0.0000000E+00  0.4687500E-01
    1      -18.363329   1.000000
    2      -12.917038   1.000000
    3       -9.610777   1.000000
    4       -6.105423   1.000000
    5        1.248980   0.000000
    6        5.814847   0.000000
    7        6.962590   0.000000
    8        7.520333   0.000000
 
  0.3750000E+00  0.1250000E+00  0.0000000E+00  0.4687500E-01
    1      -17.242869   1.000000
    2      -14.404021   1.000000
    3       -9.900190   1.000000
    4       -5.032940   1.000000
    5       -0.177172   0.000000
    6        6.820524   0.000000
    7        7.446883   0.000000
    8        8.393423   0.000000
 
  0.4375000E+00  0.1250000E+00  0.0000000E+00  0.2343750E-01
    1      -16.294781   1.000000
    2      -15.478235   1.000000
    3       -9.997063   1.000000
    4       -4.470883   1.000000
    5       -0.862244   0.000000
    6        6.790095   0.000000
    7        9.171314   0.000000
    8        9.296805   0.000000
 
  0.1875000E+00  0.1875000E+00  0.0000000E+00  0.2343750E-01
    1      -19.433176   1.000000
    2      -10.838688   1.000000
    3       -9.563810   1.000000
    4       -7.282285   1.000000
    5        3.131398   0.000000
    6        4.322660   0.000000
    7        5.385388   0.000000
    8        5.954178   0.000000
 
  0.2500000E+00  0.1875000E+00  0.0000000E+00  0.4687500E-01
    1      -18.541239   1.000000
    2      -12.066032   1.000000
    3      -10.375759   1.000000
    4       -6.272120   1.000000
    5        1.689316   0.000000
    6        5.571929   0.000000
    7        6.589145   0.000000
    8        7.250853   0.000000
 
  0.3125000E+00  0.1875000E+00  0.0000000E+00  0.4687500E-01
    1      -17.496978   1.000000
    2      -13.461564   1.000000
    3      -10.846308   1.000000
    4       -5.166911   1.000000
    5        0.262616   0.000000
    6        7.049534   0.000000
    7        7.897784   0.000000
    8        8.441806   0.000000
 
  0.3750000E+00  0.1875000E+00  0.0000000E+00  0.4687500E-01
    1      -16.362676   1.000000
    2      -14.802647   1.000000
    3      -11.065645   1.000000
    4       -4.217679   1.000000
    5       -0.859714   0.000000
    6        8.338265   0.000000
    7        8.748779   0.000000
    8        8.832365   0.000000
 
  0.2500000E+00  0.2500000E+00  0.0000000E+00  0.2343750E-01
    1      -17.583244   1.000000
    2      -12.833459   1.000000
    3      -11.489292   1.000000
    4       -5.218435   1.000000
    5        0.453501   0.000000
    6        6.927942   0.000000
    7        7.707128   0.000000
    8        8.674583   0.000000
 
  0.3125000E+00  0.2500000E+00  0.0000000E+00  0.4687500E-01
    1      -16.498630   1.000000
    2      -13.903352   1.000000
    3      -12.096456   1.000000
    4       -4.119716   1.000000
    5       -0.753468   0.000000
    6        8.300835   0.000000
    7        8.479924   0.000000
    8       10.085895   0.000000
 
  0.3750000E+00  0.2500000E+00  0.0000000E+00  0.2343750E-01
    1      -15.594742   1.000000
    2      -14.845111   1.000000
    3      -12.261884   1.000000
    4       -3.452301   1.000000
    5       -1.457439   0.000000
    6        8.333133   0.000000
    7        9.930649   0.000000
    8       10.015605   0.000000
 
  0.3125000E+00  0.3125000E+00  0.0000000E+00  0.2343750E-01
    1      -15.441820   1.000000
    2      -14.434972   1.000000
    3      -12.991302   1.000000
    4       -3.045319   1.000000
    5       -1.788391   0.000000
    6        8.062463   0.000000
    7        9.968182   0.000000
    8       10.784711   0.000000
