 running on    8 total cores
 distrk:  each k-point on    8 cores,    1 groups
 distr:  one band on    1 cores,    8 groups
 using from now: INCAR     
 vasp.5.4.4.18Apr17-6-g9f103f2a35 (build Aug 01 2019 21:13:31) complex          
  
 POSCAR found type information on POSCAR  C 
 POSCAR found :  1 types and       2 ions
 scaLAPACK will be used

 ----------------------------------------------------------------------------- 
|                                                                             |
|           W    W    AA    RRRRR   N    N  II  N    N   GGGG   !!!           |
|           W    W   A  A   R    R  NN   N  II  NN   N  G    G  !!!           |
|           W    W  A    A  R    R  N N  N  II  N N  N  G       !!!           |
|           W WW W  AAAAAA  RRRRR   N  N N  II  N  N N  G  GGG   !            |
|           WW  WW  A    A  R   R   N   NN  II  N   NN  G    G                |
|           W    W  A    A  R    R  N    N  II  N    N   GGGG   !!!           |
|                                                                             |
|      For optimal performance we recommend to set                            |
|        NCORE= 4 - approx SQRT( number of cores)                             |
|      NCORE specifies how many cores store one orbital (NPAR=cpu/NCORE).     |
|      This setting can  greatly improve the performance of VASP for DFT.     |
|      The default,   NCORE=1            might be grossly inefficient         |
|      on modern multi-core architectures or massively parallel machines.     |
|      Do your own testing !!!!                                               |
|      Unfortunately you need to use the default for GW and RPA calculations. |
|      (for HF NCORE is supported but not extensively tested yet)             |
|                                                                             |
 ----------------------------------------------------------------------------- 

 LDA part: xc-table for Ceperly-Alder, standard interpolation
 POSCAR, INCAR and KPOINTS ok, starting setup
 FFT: planning ...
 WAVECAR not read
 entering main loop
       N       E                     dE             d eps       ncg     rms          rms(c)
DAV:   1     0.588142895937E+02    0.58814E+02   -0.41969E+03   480   0.996E+02
DAV:   2    -0.174314497930E+02   -0.76246E+02   -0.65972E+02   664   0.153E+02
DAV:   3    -0.217195935238E+02   -0.42881E+01   -0.42478E+01   680   0.532E+01
DAV:   4    -0.217574011079E+02   -0.37808E-01   -0.37808E-01   760   0.505E+00
DAV:   5    -0.217574532070E+02   -0.52099E-04   -0.52099E-04   688   0.218E-01    0.588E+00
DAV:   6    -0.206222601844E+02    0.11352E+01   -0.11783E+00   592   0.773E+00    0.303E+00
DAV:   7    -0.202142281456E+02    0.40803E+00   -0.12895E+00   832   0.792E+00    0.535E-01
DAV:   8    -0.202048014337E+02    0.94267E-02   -0.10879E-02   656   0.102E+00    0.103E-01
DAV:   9    -0.202027983288E+02    0.20031E-02   -0.28260E-03   672   0.334E-01    0.689E-02
DAV:  10    -0.202015077520E+02    0.12906E-02   -0.22892E-03   632   0.239E-01    0.270E-02
DAV:  11    -0.202016551401E+02   -0.14739E-03   -0.24427E-04   544   0.774E-02    0.165E-02
DAV:  12    -0.202025344187E+02   -0.87928E-03   -0.22538E-04   696   0.759E-02    0.979E-03
DAV:  13    -0.202030541681E+02   -0.51975E-03   -0.14299E-04   568   0.451E-02    0.434E-03
DAV:  14    -0.202031173870E+02   -0.63219E-04   -0.11809E-05   632   0.182E-02    0.244E-03
DAV:  15    -0.202031887778E+02   -0.71391E-04   -0.92509E-06   560   0.112E-02    0.745E-04
DAV:  16    -0.202031960582E+02   -0.72805E-05   -0.48157E-07   624   0.448E-03
   1 F= -.20203196E+02 E0= -.20203196E+02  d E =-.202032E+02
 curvature:   0.00 expect dE= 0.000E+00 dE for cont linesearch  0.000E+00
 trial: gam= 0.00000 g(F)=  0.377E-45 g(S)=  0.000E+00 ort = 0.000E+00 (trialstep = 0.100E+01)
 search vector abs. value=  0.100E-09
 reached required accuracy - stopping structural energy minimisation
