graphene                                
           1
     2.445837    0.000000    0.000000
    -1.222918    2.118157    0.000000
     0.000000    0.000000   15.000000
   C 
   2
Direct configuration=     1
   0.00000000  0.00000000  0.25000000
   0.33333334  0.66666669  0.25000000
