  17  17   0   0
  0.4114059E+02  0.7337511E-09  0.7337511E-09  0.1500000E-08  0.2000000E-15
  1.000000000000000E-004
  CAR 
 graphene                                
      9.06930781    -23.54706821  301     -2.93393680      1.00000000
    -23.547  0.0000E+00  0.0000E+00  0.0000E+00  0.0000E+00
    -23.438  0.0000E+00  0.0000E+00  0.0000E+00  0.0000E+00
    -23.330  0.0000E+00  0.0000E+00  0.0000E+00  0.0000E+00
    -23.221  0.0000E+00  0.0000E+00  0.0000E+00  0.0000E+00
    -23.112  0.0000E+00  0.0000E+00  0.0000E+00  0.0000E+00
    -23.003  0.0000E+00  0.0000E+00  0.0000E+00  0.0000E+00
    -22.895  0.0000E+00  0.0000E+00  0.0000E+00  0.0000E+00
    -22.786  0.0000E+00  0.0000E+00  0.0000E+00  0.0000E+00
    -22.677  0.0000E+00  0.0000E+00  0.0000E+00  0.0000E+00
    -22.569  0.0000E+00  0.0000E+00  0.0000E+00  0.0000E+00
    -22.460  0.0000E+00  0.0000E+00  0.0000E+00  0.0000E+00
    -22.351  0.6808E-18  0.0000E+00  0.7401E-19  0.0000E+00
    -22.242  0.5953E-09  0.4558E-11  0.6472E-10  0.4956E-12
    -22.134  0.6179E-04  0.5867E-05  0.6718E-05  0.6379E-06
    -22.025  0.2987E-02  0.1592E-02  0.3315E-03  0.1738E-03
    -21.916  0.1321E-01  0.1197E-01  0.1768E-02  0.1475E-02
    -21.808  0.5491E-02  0.4986E-02  0.2365E-02  0.2017E-02
    -21.699  0.1970E-01  0.1790E-01  0.4507E-02  0.3963E-02
    -21.590  0.6313E-02  0.1033E-01  0.5194E-02  0.5086E-02
    -21.481  0.1285E-01  0.1190E-01  0.6590E-02  0.6380E-02
    -21.373  0.7268E-03  0.2642E-02  0.6669E-02  0.6667E-02
    -21.264  0.8106E-02  0.3957E-02  0.7551E-02  0.7097E-02
    -21.155  0.7680E-02  0.1082E-01  0.8386E-02  0.8273E-02
    -21.046  0.1287E-01  0.1147E-01  0.9785E-02  0.9520E-02
    -20.938  0.3636E-02  0.4095E-02  0.1018E-01  0.9965E-02
    -20.829  0.1164E-01  0.1289E-01  0.1145E-01  0.1137E-01
    -20.720  0.1952E-03  0.9180E-03  0.1147E-01  0.1147E-01
    -20.612  0.2797E-02  0.1558E-03  0.1177E-01  0.1148E-01
    -20.503  0.1635E-01  0.1286E-01  0.1355E-01  0.1288E-01
    -20.394  0.2191E-01  0.2017E-01  0.1593E-01  0.1507E-01
    -20.285  0.3696E-02  0.1091E-01  0.1633E-01  0.1626E-01
    -20.177  0.1278E-01  0.8604E-02  0.1772E-01  0.1720E-01
    -20.068  0.2983E-02  0.6304E-02  0.1805E-01  0.1788E-01
    -19.959  0.1260E-01  0.1119E-01  0.1942E-01  0.1910E-01
    -19.851  0.4697E-03  0.3387E-02  0.1947E-01  0.1947E-01
    -19.742  0.7409E-02  0.1357E-02  0.2027E-01  0.1961E-01
    -19.633  0.2476E-01  0.2236E-01  0.2296E-01  0.2204E-01
    -19.524  0.6477E-02  0.1321E-01  0.2367E-01  0.2348E-01
    -19.416  0.3046E-02  0.4440E-02  0.2400E-01  0.2396E-01
    -19.307  0.7110E-02  0.1881E-02  0.2477E-01  0.2417E-01
    -19.198  0.1872E-01  0.1704E-01  0.2681E-01  0.2602E-01
    -19.089  0.3739E-02  0.1077E-01  0.2722E-01  0.2719E-01
    -18.981  0.1121E-01  0.4943E-02  0.2843E-01  0.2773E-01
    -18.872  0.1248E-01  0.1275E-01  0.2979E-01  0.2911E-01
    -18.763  0.1334E-01  0.1538E-01  0.3124E-01  0.3079E-01
    -18.655  0.6970E-02  0.1105E-01  0.3200E-01  0.3199E-01
    -18.546  0.1872E-04  0.1162E-03  0.3200E-01  0.3200E-01
    -18.437  0.5847E-02  0.1399E-02  0.3264E-01  0.3215E-01
    -18.328  0.8955E-02  0.1275E-01  0.3361E-01  0.3354E-01
    -18.220  0.1103E-01  0.5279E-02  0.3481E-01  0.3411E-01
    -18.111  0.3592E-02  0.9938E-02  0.3520E-01  0.3519E-01
    -18.002  0.6193E-04  0.6857E-04  0.3521E-01  0.3520E-01
    -17.894  0.2204E-01  0.7847E-02  0.3760E-01  0.3605E-01
    -17.785  0.2233E-01  0.3557E-01  0.4003E-01  0.3992E-01
    -17.676  0.2115E-02  0.1541E-02  0.4026E-01  0.4009E-01
    -17.567  0.5366E-03  0.1630E-02  0.4032E-01  0.4027E-01
    -17.459  0.1263E-01  0.2554E-02  0.4169E-01  0.4054E-01
    -17.350  0.4566E-02  0.1212E-01  0.4219E-01  0.4186E-01
    -17.241  0.2235E-01  0.1630E-01  0.4462E-01  0.4363E-01
    -17.133  0.8707E-02  0.1372E-01  0.4556E-01  0.4512E-01
    -17.024  0.2021E-01  0.1720E-01  0.4776E-01  0.4699E-01
    -16.915  0.7850E-02  0.1200E-01  0.4862E-01  0.4830E-01
    -16.806  0.2508E-01  0.1936E-01  0.5134E-01  0.5040E-01
    -16.698  0.1138E-02  0.9763E-02  0.5147E-01  0.5146E-01
    -16.589  0.2578E-07  0.2029E-04  0.5147E-01  0.5147E-01
    -16.480  0.1355E-13  0.9309E-11  0.5147E-01  0.5147E-01
    -16.371  0.5252E-06  0.2716E-08  0.5147E-01  0.5147E-01
    -16.263  0.2722E-02  0.3276E-03  0.5176E-01  0.5150E-01
    -16.154  0.1477E-01  0.1232E-01  0.5337E-01  0.5284E-01
    -16.045  0.2523E-01  0.1559E-01  0.5611E-01  0.5454E-01
    -15.937  0.1431E-02  0.1583E-01  0.5627E-01  0.5626E-01
    -15.828  0.2875E-03  0.8849E-04  0.5630E-01  0.5627E-01
    -15.719  0.1214E-01  0.5298E-02  0.5762E-01  0.5684E-01
    -15.610  0.2295E-02  0.9366E-02  0.5787E-01  0.5786E-01
    -15.502  0.4059E-02  0.3086E-03  0.5831E-01  0.5789E-01
    -15.393  0.1502E-01  0.1259E-01  0.5994E-01  0.5926E-01
    -15.284  0.1362E-01  0.1722E-01  0.6142E-01  0.6114E-01
    -15.176  0.1326E-01  0.1037E-01  0.6286E-01  0.6226E-01
    -15.067  0.2361E-01  0.1338E-01  0.6543E-01  0.6372E-01
    -14.958  0.1135E-01  0.2619E-01  0.6667E-01  0.6657E-01
    -14.849  0.3901E-04  0.9266E-03  0.6667E-01  0.6667E-01
    -14.741  0.8198E-02  0.1986E-02  0.6756E-01  0.6688E-01
    -14.632  0.6855E-02  0.1239E-01  0.6831E-01  0.6823E-01
    -14.523  0.1242E-01  0.7886E-02  0.6966E-01  0.6909E-01
    -14.414  0.1939E-02  0.7157E-02  0.6987E-01  0.6987E-01
    -14.306  0.1430E-02  0.3039E-03  0.7002E-01  0.6990E-01
    -14.197  0.2085E-01  0.1330E-01  0.7229E-01  0.7134E-01
    -14.088  0.8942E-02  0.1525E-01  0.7326E-01  0.7300E-01
    -13.980  0.1252E-01  0.1168E-01  0.7462E-01  0.7427E-01
    -13.871  0.4825E-03  0.3630E-02  0.7467E-01  0.7467E-01
    -13.762  0.1440E-01  0.1057E-02  0.7624E-01  0.7478E-01
    -13.653  0.3124E-01  0.3407E-01  0.7964E-01  0.7849E-01
    -13.545  0.8936E-03  0.1146E-01  0.7973E-01  0.7973E-01
    -13.436  0.5760E-03  0.2626E-04  0.7980E-01  0.7973E-01
    -13.327  0.1658E-01  0.7110E-02  0.8160E-01  0.8051E-01
    -13.219  0.2513E-02  0.1242E-01  0.8187E-01  0.8186E-01
    -13.110  0.9295E-02  0.2913E-02  0.8288E-01  0.8217E-01
    -13.001  0.5910E-02  0.1169E-01  0.8352E-01  0.8345E-01
    -12.892  0.1472E-01  0.6639E-02  0.8513E-01  0.8417E-01
    -12.784  0.1383E-01  0.2021E-01  0.8663E-01  0.8636E-01
    -12.675  0.4014E-03  0.2784E-02  0.8667E-01  0.8667E-01
    -12.566  0.2122E-02  0.1379E-02  0.8690E-01  0.8682E-01
    -12.458  0.1488E-01  0.6528E-02  0.8852E-01  0.8753E-01
    -12.349  0.2618E-01  0.2713E-01  0.9137E-01  0.9048E-01
    -12.240  0.8267E-02  0.1627E-01  0.9226E-01  0.9224E-01
    -12.131  0.1638E-04  0.2039E-03  0.9227E-01  0.9227E-01
    -12.023  0.1406E-02  0.1503E-05  0.9242E-01  0.9227E-01
    -11.914  0.1282E-01  0.3847E-02  0.9381E-01  0.9269E-01
    -11.805  0.1350E-01  0.1259E-01  0.9528E-01  0.9405E-01
    -11.696  0.1847E-01  0.2321E-01  0.9729E-01  0.9658E-01
    -11.588  0.1261E-01  0.1526E-01  0.9866E-01  0.9824E-01
    -11.479  0.1215E-01  0.1118E-01  0.9998E-01  0.9945E-01
    -11.370  0.9840E-02  0.8295E-02  0.1010E+00  0.1004E+00
    -11.262  0.2244E-01  0.2467E-01  0.1035E+00  0.1030E+00
    -11.153  0.1519E-01  0.1101E-01  0.1051E+00  0.1042E+00
    -11.044  0.4829E-02  0.1252E-01  0.1057E+00  0.1056E+00
    -10.935  0.1285E-01  0.8381E-02  0.1071E+00  0.1065E+00
    -10.827  0.1221E-01  0.8441E-02  0.1084E+00  0.1074E+00
    -10.718  0.1769E-01  0.1847E-01  0.1103E+00  0.1094E+00
    -10.609  0.1468E-01  0.1038E-01  0.1119E+00  0.1106E+00
    -10.501  0.1861E-01  0.2382E-01  0.1139E+00  0.1132E+00
    -10.392  0.1244E-01  0.1756E-01  0.1153E+00  0.1151E+00
    -10.283  0.1506E-01  0.1132E-01  0.1169E+00  0.1163E+00
    -10.174  0.1199E-01  0.1384E-01  0.1182E+00  0.1178E+00
    -10.066  0.6345E-02  0.8133E-02  0.1189E+00  0.1187E+00
     -9.957  0.3656E-01  0.1964E-01  0.1229E+00  0.1208E+00
     -9.848  0.4530E-01  0.4768E-01  0.1278E+00  0.1260E+00
     -9.739  0.1899E-01  0.3377E-01  0.1299E+00  0.1297E+00
     -9.631  0.2033E-01  0.1300E-01  0.1321E+00  0.1311E+00
     -9.522  0.2097E-01  0.2260E-01  0.1344E+00  0.1335E+00
     -9.413  0.1081E-01  0.1156E-01  0.1355E+00  0.1348E+00
     -9.305  0.3308E-01  0.2964E-01  0.1391E+00  0.1380E+00
     -9.196  0.1477E-01  0.1708E-01  0.1407E+00  0.1399E+00
     -9.087  0.2213E-01  0.2540E-01  0.1432E+00  0.1426E+00
     -8.978  0.2506E-01  0.1838E-01  0.1459E+00  0.1446E+00
     -8.870  0.2842E-01  0.2657E-01  0.1490E+00  0.1475E+00
     -8.761  0.2002E-01  0.3150E-01  0.1511E+00  0.1510E+00
     -8.652  0.8406E-02  0.5106E-02  0.1521E+00  0.1515E+00
     -8.544  0.3140E-01  0.2365E-01  0.1555E+00  0.1541E+00
     -8.435  0.2763E-01  0.2436E-01  0.1585E+00  0.1567E+00
     -8.326  0.4060E-01  0.5245E-01  0.1629E+00  0.1624E+00
     -8.217  0.5257E-02  0.4870E-02  0.1635E+00  0.1630E+00
     -8.109  0.3420E-01  0.2547E-01  0.1672E+00  0.1657E+00
     -8.000  0.5169E-02  0.1842E-01  0.1677E+00  0.1677E+00
     -7.891  0.1017E-01  0.4663E-02  0.1688E+00  0.1682E+00
     -7.782  0.4846E-02  0.1002E-01  0.1694E+00  0.1693E+00
     -7.674  0.1542E-01  0.5178E-02  0.1711E+00  0.1699E+00
     -7.565  0.1786E-01  0.2322E-01  0.1730E+00  0.1724E+00
     -7.456  0.1997E-01  0.1875E-01  0.1752E+00  0.1745E+00
     -7.348  0.2725E-01  0.2192E-01  0.1781E+00  0.1768E+00
     -7.239  0.1457E-01  0.1191E-01  0.1797E+00  0.1781E+00
     -7.130  0.1644E-01  0.2099E-01  0.1815E+00  0.1804E+00
     -7.021  0.3008E-01  0.2995E-01  0.1848E+00  0.1837E+00
     -6.913  0.3523E-01  0.2659E-01  0.1886E+00  0.1866E+00
     -6.804  0.7716E-02  0.8488E-02  0.1894E+00  0.1875E+00
     -6.695  0.1197E-01  0.1632E-01  0.1907E+00  0.1893E+00
     -6.587  0.1310E-01  0.2273E-01  0.1922E+00  0.1917E+00
     -6.478  0.1898E-01  0.1049E-01  0.1942E+00  0.1929E+00
     -6.369  0.1514E-01  0.9149E-02  0.1959E+00  0.1939E+00
     -6.260  0.1089E-01  0.3153E-03  0.1971E+00  0.1939E+00
     -6.152  0.5114E-02  0.1219E-01  0.1976E+00  0.1952E+00
     -6.043  0.2361E-01  0.2168E-01  0.2002E+00  0.1976E+00
     -5.934  0.6073E-02  0.1140E-01  0.2008E+00  0.1988E+00
     -5.826  0.9421E-02  0.2356E-01  0.2019E+00  0.2014E+00
     -5.717  0.3805E-02  0.5111E-02  0.2023E+00  0.2019E+00
     -5.608  0.3958E-01  0.3212E-01  0.2066E+00  0.2054E+00
     -5.499  0.3409E-02  0.1372E-01  0.2069E+00  0.2069E+00
     -5.391  0.1119E-01  0.1180E-02  0.2082E+00  0.2070E+00
     -5.282  0.4515E-02  0.1290E-01  0.2087E+00  0.2084E+00
     -5.173  0.1793E-01  0.9399E-02  0.2106E+00  0.2095E+00
     -5.064  0.1095E-01  0.1946E-01  0.2118E+00  0.2116E+00
     -4.956  0.1750E-01  0.1034E-01  0.2137E+00  0.2127E+00
     -4.847  0.2546E-01  0.2973E-01  0.2165E+00  0.2159E+00
     -4.738  0.6027E-03  0.5419E-02  0.2165E+00  0.2165E+00
     -4.630  0.5107E-03  0.1527E-04  0.2166E+00  0.2165E+00
     -4.521  0.1268E-01  0.7197E-02  0.2180E+00  0.2173E+00
     -4.412  0.1530E-02  0.7488E-02  0.2181E+00  0.2181E+00
     -4.303  0.1075E-06  0.1683E-04  0.2181E+00  0.2181E+00
     -4.195  0.9329E-15  0.6664E-11  0.2181E+00  0.2181E+00
     -4.086  0.4036E-15  0.0000E+00  0.2181E+00  0.2181E+00
     -3.977  0.6475E-07  0.4127E-09  0.2181E+00  0.2181E+00
     -3.869  0.1257E-02  0.1360E-03  0.2183E+00  0.2181E+00
     -3.760  0.1281E-01  0.1111E-01  0.2197E+00  0.2194E+00
     -3.651  0.6483E-03  0.3472E-02  0.2197E+00  0.2197E+00
     -3.542  0.1286E-07  0.1089E-05  0.2197E+00  0.2197E+00
     -3.434  0.3885E-08  0.4741E-13  0.2197E+00  0.2197E+00
     -3.325  0.5438E-03  0.1017E-07  0.2198E+00  0.2197E+00
     -3.216  0.3308E-01  0.8381E-03  0.2234E+00  0.2198E+00
     -3.107  0.3141E-01  0.2684E-01  0.2268E+00  0.2227E+00
     -2.999  0.8894E-02  0.1609E-01  0.2278E+00  0.2245E+00
     -2.890  0.2288E-01  0.1034E-02  0.2303E+00  0.2246E+00
     -2.781  0.7001E-02  0.2154E-01  0.2310E+00  0.2269E+00
     -2.673  0.2397E-02  0.1745E-01  0.2313E+00  0.2288E+00
     -2.564  0.6266E-02  0.9105E-02  0.2320E+00  0.2298E+00
     -2.455  0.2679E-01  0.1532E-01  0.2349E+00  0.2315E+00
     -2.346  0.2694E-01  0.2157E-02  0.2378E+00  0.2317E+00
     -2.238  0.1326E-01  0.7299E-06  0.2392E+00  0.2317E+00
     -2.129  0.8960E-02  0.3407E-02  0.2402E+00  0.2321E+00
     -2.020  0.4421E-03  0.2726E-01  0.2403E+00  0.2351E+00
     -1.912  0.2435E-07  0.2603E-01  0.2403E+00  0.2379E+00
     -1.803  0.2077E-08  0.1381E-01  0.2403E+00  0.2394E+00
     -1.694  0.2900E-03  0.7751E-02  0.2403E+00  0.2402E+00
     -1.585  0.1215E-01  0.6610E-02  0.2416E+00  0.2410E+00
     -1.477  0.2281E-02  0.8316E-02  0.2419E+00  0.2419E+00
     -1.368  0.3169E-06  0.2689E-04  0.2419E+00  0.2419E+00
     -1.259  0.3289E-08  0.1693E-10  0.2419E+00  0.2419E+00
     -1.150  0.3584E-03  0.4894E-05  0.2419E+00  0.2419E+00
     -1.042  0.1598E-01  0.6519E-02  0.2436E+00  0.2426E+00
     -0.933  0.1297E-01  0.2209E-01  0.2451E+00  0.2450E+00
     -0.824  0.7981E-03  0.8342E-03  0.2451E+00  0.2451E+00
     -0.716  0.2526E-01  0.1115E-01  0.2479E+00  0.2463E+00
     -0.607  0.1592E-01  0.2395E-01  0.2496E+00  0.2489E+00
     -0.498  0.2043E-01  0.1618E-01  0.2518E+00  0.2506E+00
     -0.389  0.1342E-01  0.2334E-01  0.2533E+00  0.2532E+00
     -0.281  0.3406E-03  0.1406E-02  0.2533E+00  0.2533E+00
     -0.172  0.7982E-02  0.1385E-02  0.2542E+00  0.2535E+00
     -0.063  0.2111E-01  0.2004E-01  0.2565E+00  0.2557E+00
      0.045  0.9724E-02  0.8810E-02  0.2576E+00  0.2566E+00
      0.154  0.5325E-02  0.1290E-01  0.2581E+00  0.2580E+00
      0.263  0.4492E-05  0.1017E-02  0.2581E+00  0.2581E+00
      0.372  0.7066E-03  0.1229E-04  0.2582E+00  0.2581E+00
      0.480  0.1284E-01  0.6941E-02  0.2596E+00  0.2589E+00
      0.589  0.1165E-02  0.7744E-02  0.2597E+00  0.2597E+00
      0.698  0.2399E-02  0.6305E-03  0.2600E+00  0.2598E+00
      0.806  0.1215E-01  0.1285E-01  0.2613E+00  0.2612E+00
      0.915  0.4936E-02  0.3539E-02  0.2619E+00  0.2616E+00
      1.024  0.3427E-01  0.2672E-01  0.2656E+00  0.2645E+00
      1.133  0.7561E-02  0.1758E-01  0.2664E+00  0.2664E+00
      1.241  0.8412E-03  0.6168E-03  0.2665E+00  0.2665E+00
      1.350  0.1602E-01  0.1318E-01  0.2682E+00  0.2679E+00
      1.459  0.2295E-01  0.2339E-01  0.2707E+00  0.2704E+00
      1.568  0.4341E-02  0.6976E-02  0.2712E+00  0.2712E+00
      1.676  0.3485E-05  0.4835E-05  0.2712E+00  0.2712E+00
      1.785  0.3890E-02  0.3447E-02  0.2716E+00  0.2716E+00
      1.894  0.1402E-01  0.1370E-01  0.2731E+00  0.2731E+00
      2.002  0.3013E-01  0.2115E-01  0.2764E+00  0.2754E+00
      2.111  0.1703E-01  0.2512E-01  0.2783E+00  0.2781E+00
      2.220  0.2810E-01  0.2057E-01  0.2813E+00  0.2803E+00
      2.329  0.2920E-01  0.3265E-01  0.2845E+00  0.2839E+00
      2.437  0.1133E-01  0.1353E-01  0.2857E+00  0.2854E+00
      2.546  0.3135E-01  0.2881E-01  0.2891E+00  0.2885E+00
      2.655  0.2855E-01  0.3208E-01  0.2922E+00  0.2920E+00
      2.763  0.2016E-01  0.1937E-01  0.2944E+00  0.2941E+00
      2.872  0.3163E-01  0.3232E-01  0.2979E+00  0.2976E+00
      2.981  0.3155E-01  0.3400E-01  0.3013E+00  0.3013E+00
      3.090  0.5478E-02  0.5564E-02  0.3019E+00  0.3019E+00
      3.198  0.1955E-01  0.1809E-01  0.3040E+00  0.3039E+00
      3.307  0.1840E-01  0.1188E-01  0.3060E+00  0.3052E+00
      3.416  0.2200E-01  0.2792E-01  0.3084E+00  0.3082E+00
      3.525  0.3440E-01  0.3267E-01  0.3122E+00  0.3117E+00
      3.633  0.3122E-01  0.3414E-01  0.3156E+00  0.3154E+00
      3.742  0.2203E-01  0.2137E-01  0.3180E+00  0.3178E+00
      3.851  0.4291E-01  0.3286E-01  0.3226E+00  0.3213E+00
      3.959  0.4745E-01  0.4373E-01  0.3278E+00  0.3261E+00
      4.068  0.1200E-01  0.2706E-01  0.3291E+00  0.3290E+00
      4.177  0.1253E-01  0.1245E-01  0.3304E+00  0.3304E+00
      4.286  0.2883E-01  0.2750E-01  0.3336E+00  0.3334E+00
      4.394  0.3927E-01  0.4005E-01  0.3378E+00  0.3377E+00
      4.503  0.7634E-02  0.8114E-02  0.3387E+00  0.3386E+00
      4.612  0.2086E-01  0.1923E-01  0.3409E+00  0.3407E+00
      4.720  0.3718E-01  0.3769E-01  0.3450E+00  0.3448E+00
      4.829  0.3622E-01  0.3689E-01  0.3489E+00  0.3488E+00
      4.938  0.4126E-01  0.3899E-01  0.3534E+00  0.3531E+00
      5.047  0.2793E-01  0.2584E-01  0.3564E+00  0.3559E+00
      5.155  0.3722E-01  0.3399E-01  0.3605E+00  0.3596E+00
      5.264  0.9706E-01  0.1015E+00  0.3710E+00  0.3706E+00
      5.373  0.2302E-01  0.2559E-01  0.3735E+00  0.3734E+00
      5.482  0.3825E-01  0.3479E-01  0.3777E+00  0.3772E+00
      5.590  0.8329E-01  0.7374E-01  0.3868E+00  0.3852E+00
      5.699  0.5045E-01  0.5744E-01  0.3922E+00  0.3914E+00
      5.808  0.2631E-01  0.2459E-01  0.3951E+00  0.3941E+00
      5.916  0.6592E-01  0.6310E-01  0.4023E+00  0.4010E+00
      6.025  0.6599E-01  0.6845E-01  0.4094E+00  0.4084E+00
      6.134  0.7200E-01  0.7710E-01  0.4173E+00  0.4168E+00
      6.243  0.3562E-01  0.3759E-01  0.4212E+00  0.4209E+00
      6.351  0.3045E-01  0.3038E-01  0.4245E+00  0.4242E+00
      6.460  0.6203E-01  0.5827E-01  0.4312E+00  0.4305E+00
      6.569  0.5779E-01  0.5917E-01  0.4375E+00  0.4369E+00
      6.677  0.1858E-01  0.1770E-01  0.4395E+00  0.4389E+00
      6.786  0.2699E-01  0.2586E-01  0.4424E+00  0.4417E+00
      6.895  0.5720E-01  0.5345E-01  0.4487E+00  0.4475E+00
      7.004  0.1204E+00  0.1189E+00  0.4617E+00  0.4604E+00
      7.112  0.8210E-01  0.7349E-01  0.4707E+00  0.4684E+00
      7.221  0.2655E-01  0.3669E-01  0.4736E+00  0.4724E+00
      7.330  0.1289E-01  0.1172E-01  0.4750E+00  0.4737E+00
      7.438  0.2075E-01  0.2859E-01  0.4772E+00  0.4768E+00
      7.547  0.1658E-01  0.1680E-01  0.4790E+00  0.4786E+00
      7.656  0.8953E-02  0.1247E-01  0.4800E+00  0.4800E+00
      7.765  0.3796E-04  0.3706E-03  0.4800E+00  0.4800E+00
      7.873  0.3167E-10  0.3572E-08  0.4800E+00  0.4800E+00
      7.982  0.0000E+00  0.3268E-17  0.4800E+00  0.4800E+00
      8.091  0.0000E+00  0.0000E+00  0.4800E+00  0.4800E+00
      8.200  0.0000E+00  0.0000E+00  0.4800E+00  0.4800E+00
      8.308  0.0000E+00  0.0000E+00  0.4800E+00  0.4800E+00
      8.417  0.0000E+00  0.0000E+00  0.4800E+00  0.4800E+00
      8.526  0.0000E+00  0.0000E+00  0.4800E+00  0.4800E+00
      8.634  0.0000E+00  0.0000E+00  0.4800E+00  0.4800E+00
      8.743  0.0000E+00  0.0000E+00  0.4800E+00  0.4800E+00
      8.852  0.0000E+00  0.0000E+00  0.4800E+00  0.4800E+00
      8.961  0.0000E+00  0.0000E+00  0.4800E+00  0.4800E+00
      9.069  0.0000E+00  0.0000E+00  0.4800E+00  0.4800E+00
