       N       E                     dE             d eps       ncg     rms          rms(c)
DAV:   1     0.557125523701E+03    0.55713E+03   -0.29538E+04  1440   0.943E+02
DAV:   2    -0.859762251298E+02   -0.64310E+03   -0.61235E+03  2160   0.192E+02
DAV:   3    -0.167670075438E+03   -0.81694E+02   -0.81161E+02  1920   0.720E+01
DAV:   4    -0.169814130483E+03   -0.21441E+01   -0.21358E+01  1872   0.151E+01
DAV:   5    -0.169872509014E+03   -0.58379E-01   -0.58359E-01  2136   0.236E+00    0.241E+01
DAV:   6    -0.160106566459E+03    0.97659E+01   -0.12786E+01  1824   0.866E+00    0.119E+01
DAV:   7    -0.160726549276E+03   -0.61998E+00   -0.55357E+00  1920   0.589E+00    0.652E+00
DAV:   8    -0.161646892374E+03   -0.92034E+00   -0.15815E+00  1944   0.323E+00    0.389E+00
DAV:   9    -0.162226960968E+03   -0.58007E+00   -0.22143E-01  1800   0.131E+00    0.276E+00
DAV:  10    -0.162997625332E+03   -0.77066E+00   -0.20144E-01  1968   0.116E+00    0.123E+00
DAV:  11    -0.163232322591E+03   -0.23470E+00   -0.44485E-02  1608   0.586E-01    0.745E-01
DAV:  12    -0.163286885920E+03   -0.54563E-01   -0.14104E-02  1872   0.299E-01    0.348E-01
DAV:  13    -0.163299867689E+03   -0.12982E-01   -0.56645E-03  1728   0.194E-01    0.149E-01
DAV:  14    -0.163303728985E+03   -0.38613E-02   -0.10619E-03  1848   0.927E-02    0.621E-02
DAV:  15    -0.163305661652E+03   -0.19327E-02   -0.20610E-04  1824   0.396E-02    0.335E-02
DAV:  16    -0.163307233719E+03   -0.15721E-02   -0.12363E-04  1776   0.246E-02    0.266E-02
DAV:  17    -0.163308775245E+03   -0.15415E-02   -0.16918E-04  1728   0.227E-02    0.188E-02
DAV:  18    -0.163309760761E+03   -0.98552E-03   -0.56272E-05  1824   0.151E-02    0.114E-02
DAV:  19    -0.163310202655E+03   -0.44189E-03   -0.96449E-06  1680   0.732E-03    0.747E-03
DAV:  20    -0.163310573093E+03   -0.37044E-03   -0.92630E-06  1728   0.626E-03    0.359E-03
DAV:  21    -0.163310772356E+03   -0.19926E-03   -0.53189E-06  1392   0.455E-03    0.210E-03
DAV:  22    -0.163310844003E+03   -0.71647E-04   -0.11347E-06  1368   0.225E-03    0.121E-03
DAV:  23    -0.163310888334E+03   -0.44331E-04   -0.73240E-07  1344   0.183E-03    0.622E-04
DAV:  24    -0.163310906436E+03   -0.18102E-04   -0.38231E-07  1320   0.109E-03    0.437E-04
DAV:  25    -0.163310908968E+03   -0.25324E-05   -0.42479E-08  1392   0.423E-04
   1 F= -.16331091E+03 E0= -.16330914E+03  d E =-.163311E+03  mag=     0.6495
       N       E                     dE             d eps       ncg     rms          rms(c)
DAV:   1    -0.163483031255E+03   -0.17212E+00   -0.30074E+01  1800   0.182E+01    0.130E+00
DAV:   2    -0.163479040235E+03    0.39910E-02   -0.69930E-01  2016   0.275E+00    0.101E+00
DAV:   3    -0.163469278356E+03    0.97619E-02   -0.56598E-02  1872   0.730E-01    0.558E-01
DAV:   4    -0.163464780019E+03    0.44983E-02   -0.13805E-02  2040   0.358E-01    0.221E-01
DAV:   5    -0.163464153582E+03    0.62644E-03   -0.41033E-03  1896   0.205E-01    0.718E-02
DAV:   6    -0.163464160241E+03   -0.66589E-05   -0.85009E-04  1776   0.861E-02    0.312E-02
DAV:   7    -0.163464175984E+03   -0.15743E-04   -0.57265E-05  2040   0.234E-02    0.147E-02
DAV:   8    -0.163464186048E+03   -0.10063E-04   -0.15205E-05  1512   0.126E-02    0.570E-03
DAV:   9    -0.163464193479E+03   -0.74315E-05   -0.39616E-06  1608   0.680E-03
   2 F= -.16346419E+03 E0= -.16346137E+03  d E =-.153285E+00  mag=     0.6380
       N       E                     dE             d eps       ncg     rms          rms(c)
DAV:   1    -0.163524735070E+03   -0.60549E-01   -0.36598E+00  1872   0.632E+00    0.457E-01
DAV:   2    -0.163524175307E+03    0.55976E-03   -0.77253E-02  2064   0.924E-01    0.402E-01
DAV:   3    -0.163522820755E+03    0.13546E-02   -0.70327E-03  1896   0.254E-01    0.217E-01
DAV:   4    -0.163522219619E+03    0.60114E-03   -0.18735E-03  1824   0.131E-01    0.925E-02
DAV:   5    -0.163522112830E+03    0.10679E-03   -0.68435E-04  1920   0.834E-02    0.284E-02
DAV:   6    -0.163522112369E+03    0.46118E-06   -0.14386E-04  1776   0.353E-02    0.128E-02
DAV:   7    -0.163522115055E+03   -0.26858E-05   -0.86270E-06  1536   0.948E-03
   3 F= -.16352212E+03 E0= -.16351907E+03  d E =-.211206E+00  mag=     0.6393
       N       E                     dE             d eps       ncg     rms          rms(c)
DAV:   1    -0.163534720363E+03   -0.12608E-01   -0.88149E-01  1512   0.310E+00    0.207E-01
DAV:   2    -0.163534723530E+03   -0.31671E-05   -0.15033E-02  2088   0.426E-01    0.136E-01
DAV:   3    -0.163534521015E+03    0.20251E-03   -0.18090E-03  1872   0.132E-01    0.604E-02
DAV:   4    -0.163534505002E+03    0.16013E-04   -0.21952E-04  1848   0.459E-02    0.267E-02
DAV:   5    -0.163534498098E+03    0.69041E-05   -0.35152E-05  1824   0.176E-02
   4 F= -.16353450E+03 E0= -.16353143E+03  d E =-.123830E-01  mag=     0.6394
       N       E                     dE             d eps       ncg     rms          rms(c)
DAV:   1    -0.163534697803E+03   -0.19280E-03   -0.18221E-02  1584   0.446E-01    0.325E-02
DAV:   2    -0.163534696849E+03    0.95403E-06   -0.31154E-04  2064   0.618E-02    0.206E-02
DAV:   3    -0.163534692825E+03    0.40243E-05   -0.44325E-05  1536   0.208E-02
   5 F= -.16353469E+03 E0= -.16353163E+03  d E =-.125778E-01  mag=     0.6394
       N       E                     dE             d eps       ncg     rms          rms(c)
DAV:   1    -0.163537352018E+03   -0.26552E-02   -0.16169E-01  1560   0.130E+00    0.928E-02
DAV:   2    -0.163537374283E+03   -0.22265E-04   -0.20144E-03  2016   0.144E-01    0.523E-02
DAV:   3    -0.163537385729E+03   -0.11447E-04   -0.12045E-04  1800   0.343E-02    0.292E-02
DAV:   4    -0.163537376201E+03    0.95280E-05   -0.36511E-05  1704   0.168E-02
   6 F= -.16353738E+03 E0= -.16353428E+03  d E =-.268338E-02  mag=     0.6393
       N       E                     dE             d eps       ncg     rms          rms(c)
DAV:   1    -0.163537767276E+03   -0.38155E-03   -0.57439E-02  1584   0.778E-01    0.582E-02
DAV:   2    -0.163537771134E+03   -0.38579E-05   -0.70149E-04  1992   0.848E-02    0.317E-02
DAV:   3    -0.163537777006E+03   -0.58717E-05   -0.45510E-05  1800   0.211E-02
   7 F= -.16353778E+03 E0= -.16353468E+03  d E =-.308418E-02  mag=     0.6392
       N       E                     dE             d eps       ncg     rms          rms(c)
DAV:   1    -0.163539241066E+03   -0.14699E-02   -0.18534E-01  1440   0.133E+00    0.103E-01
DAV:   2    -0.163539249586E+03   -0.85201E-05   -0.29028E-03  2016   0.180E-01    0.680E-02
DAV:   3    -0.163539186125E+03    0.63461E-04   -0.31178E-04  1896   0.588E-02    0.284E-02
DAV:   4    -0.163539182227E+03    0.38987E-05   -0.61536E-05  1896   0.237E-02
   8 F= -.16353918E+03 E0= -.16353609E+03  d E =-.140522E-02  mag=     0.6393
       N       E                     dE             d eps       ncg     rms          rms(c)
DAV:   1    -0.163539196973E+03   -0.10847E-04   -0.21522E-03  1560   0.143E-01    0.139E-02
DAV:   2    -0.163539197551E+03   -0.57810E-06   -0.38913E-05  1752   0.212E-02
   9 F= -.16353920E+03 E0= -.16353610E+03  d E =-.142054E-02  mag=     0.6393
       N       E                     dE             d eps       ncg     rms          rms(c)
DAV:   1    -0.163539331731E+03   -0.13476E-03   -0.74289E-03  1440   0.286E-01    0.297E-02
DAV:   2    -0.163539321958E+03    0.97735E-05   -0.22843E-04  1992   0.520E-02    0.195E-02
DAV:   3    -0.163539322693E+03   -0.73548E-06   -0.23620E-05  1656   0.148E-02
  10 F= -.16353932E+03 E0= -.16353623E+03  d E =-.125143E-03  mag=     0.6393
       N       E                     dE             d eps       ncg     rms          rms(c)
DAV:   1    -0.163539329782E+03   -0.78239E-05   -0.62141E-04  1488   0.831E-02    0.128E-02
DAV:   2    -0.163539327618E+03    0.21641E-05   -0.25568E-05  1824   0.173E-02
  11 F= -.16353933E+03 E0= -.16353624E+03  d E =-.130067E-03  mag=     0.6393
       N       E                     dE             d eps       ncg     rms          rms(c)
DAV:   1    -0.163539327890E+03    0.18922E-05   -0.38082E-06  1272   0.626E-03    0.394E-03
DAV:   2    -0.163539327953E+03   -0.63423E-07   -0.99861E-07  1272   0.313E-03
  12 F= -.16353933E+03 E0= -.16353624E+03  d E =-.130402E-03  mag=     0.6393
       N       E                     dE             d eps       ncg     rms          rms(c)
DAV:   1    -0.163539327022E+03    0.86778E-06   -0.14930E-04  1608   0.404E-02    0.360E-03
DAV:   2    -0.163539327146E+03   -0.12425E-06   -0.46287E-06  1392   0.747E-03
  13 F= -.16353933E+03 E0= -.16353624E+03  d E =-.129595E-03  mag=     0.6393
       N       E                     dE             d eps       ncg     rms          rms(c)
DAV:   1    -0.163539328712E+03   -0.16901E-05   -0.12918E-04  1728   0.373E-02    0.383E-03
DAV:   2    -0.163539328738E+03   -0.26138E-07   -0.43126E-06  1608   0.712E-03
  14 F= -.16353933E+03 E0= -.16353624E+03  d E =-.131187E-03  mag=     0.6393
       N       E                     dE             d eps       ncg     rms          rms(c)
DAV:   1    -0.163539328896E+03   -0.18373E-06   -0.86346E-07  1536   0.308E-03    0.110E-03
DAV:   2    -0.163539329026E+03   -0.13050E-06   -0.17237E-07  1488   0.131E-03
  15 F= -.16353933E+03 E0= -.16353624E+03  d E =-.131475E-03  mag=     0.6393
       N       E                     dE             d eps       ncg     rms          rms(c)
DAV:   1    -0.163539330316E+03   -0.14204E-05   -0.10495E-04  1776   0.346E-02    0.239E-03
DAV:   2    -0.163539330425E+03   -0.10923E-06   -0.18841E-06  1560   0.489E-03
  16 F= -.16353933E+03 E0= -.16353624E+03  d E =-.139913E-05  mag=     0.6393
