graphene                                
           1
     7.337511    0.000000    0.000000
    -3.668755    6.354471    0.000000
     0.000000    0.000000   15.000000
   C 
  17
Direct configuration=     1
   0.00000000  0.00000000  0.25000000
   0.33333334  0.00000000  0.25000000
   0.66666669  0.00000000  0.25000000
   0.00000000  0.33333334  0.25000000
   0.33333334  0.33333334  0.25000000
   0.00000000  0.66666669  0.25000000
   0.33333334  0.66666669  0.25000000
   0.66666669  0.66666669  0.25000000
   0.11111111  0.22222223  0.25000000
   0.44444446  0.22222223  0.25000000
   0.77777780  0.22222223  0.25000000
   0.11111111  0.55555557  0.25000000
   0.44444446  0.55555557  0.25000000
   0.77777780  0.55555557  0.25000000
   0.11111111  0.88888892  0.25000000
   0.44444446  0.88888892  0.25000000
   0.77777780  0.88888892  0.25000000
Direct configuration=     2
   0.00000000  0.00000000  0.25000000
   0.33932557  0.00400410  0.25000000
   0.66467856  0.00400410  0.25000000
  -0.00400410  0.33532147  0.25000000
   0.33932557  0.33532147  0.25000000
  -0.00400410  0.66067446  0.25000000
   0.33333334  0.66666669  0.25000000
   0.66467856  0.66067446  0.25000000
   0.10975372  0.21950745  0.25000000
   0.44030531  0.22015266  0.25000000
   0.77984737  0.22015266  0.25000000
   0.11347917  0.55673960  0.25000000
   0.44326043  0.55673960  0.25000000
   0.77984737  0.55969472  0.25000000
   0.10975372  0.89024631  0.25000000
   0.44326043  0.88652086  0.25000000
   0.78049258  0.89024631  0.25000000
Direct configuration=     3
   0.00000000  0.00000000  0.25000000
   0.33723822  0.00260930  0.25000000
   0.66537111  0.00260930  0.25000000
  -0.00260930  0.33462892  0.25000000
   0.33723822  0.33462892  0.25000000
  -0.00260930  0.66276181  0.25000000
   0.33333334  0.66666669  0.25000000
   0.66537111  0.66276181  0.25000000
   0.11022656  0.22045312  0.25000000
   0.44174715  0.22087358  0.25000000
   0.77912645  0.22087358  0.25000000
   0.11265427  0.55632715  0.25000000
   0.44367288  0.55632715  0.25000000
   0.77912645  0.55825288  0.25000000
   0.11022656  0.88977347  0.25000000
   0.44367288  0.88734576  0.25000000
   0.77954691  0.88977347  0.25000000
Direct configuration=     4
   0.00000000  0.00000000  0.25000000
   0.33750936  0.00256329  0.25000000
   0.66505395  0.00256329  0.25000000
  -0.00256329  0.33494607  0.25000000
   0.33750936  0.33494607  0.25000000
  -0.00256329  0.66249067  0.25000000
   0.33333334  0.66666669  0.25000000
   0.66505395  0.66249067  0.25000000
   0.11092269  0.22184537  0.25000000
   0.44064037  0.22032019  0.25000000
   0.77967984  0.22032019  0.25000000
   0.11263847  0.55631925  0.25000000
   0.44368078  0.55631925  0.25000000
   0.77967984  0.55935966  0.25000000
   0.11092269  0.88907734  0.25000000
   0.44368078  0.88736156  0.25000000
   0.77815466  0.88907734  0.25000000
Direct configuration=     5
   0.00000000  0.00000000  0.25000000
   0.33754840  0.00255666  0.25000000
   0.66500829  0.00255666  0.25000000
  -0.00255666  0.33499174  0.25000000
   0.33754840  0.33499174  0.25000000
  -0.00255666  0.66245163  0.25000000
   0.33333334  0.66666669  0.25000000
   0.66500829  0.66245163  0.25000000
   0.11102291  0.22204581  0.25000000
   0.44048103  0.22024051  0.25000000
   0.77975952  0.22024051  0.25000000
   0.11263619  0.55631811  0.25000000
   0.44368192  0.55631811  0.25000000
   0.77975952  0.55951900  0.25000000
   0.11102291  0.88897712  0.25000000
   0.44368192  0.88736384  0.25000000
   0.77795422  0.88897712  0.25000000
Direct configuration=     6
   0.00000000  0.00000000  0.25000000
   0.33740602  0.00218442  0.25000000
   0.66477843  0.00218442  0.25000000
  -0.00218442  0.33522160  0.25000000
   0.33740602  0.33522160  0.25000000
  -0.00218442  0.66259401  0.25000000
   0.33333334  0.66666669  0.25000000
   0.66477843  0.66259401  0.25000000
   0.11095958  0.22191916  0.25000000
   0.43984181  0.21992091  0.25000000
   0.78007912  0.21992091  0.25000000
   0.11262973  0.55631488  0.25000000
   0.44368515  0.55631488  0.25000000
   0.78007912  0.56015822  0.25000000
   0.11095958  0.88904045  0.25000000
   0.44368515  0.88737030  0.25000000
   0.77808086  0.88904045  0.25000000
Direct configuration=     7
   0.00000000  0.00000000  0.25000000
   0.33732075  0.00196150  0.25000000
   0.66464077  0.00196150  0.25000000
  -0.00196150  0.33535926  0.25000000
   0.33732075  0.33535926  0.25000000
  -0.00196150  0.66267928  0.25000000
   0.33333334  0.66666669  0.25000000
   0.66464077  0.66267928  0.25000000
   0.11092166  0.22184332  0.25000000
   0.43945901  0.21972950  0.25000000
   0.78027052  0.21972950  0.25000000
   0.11262587  0.55631295  0.25000000
   0.44368708  0.55631295  0.25000000
   0.78027052  0.56054102  0.25000000
   0.11092166  0.88907837  0.25000000
   0.44368708  0.88737416  0.25000000
   0.77815671  0.88907837  0.25000000
Direct configuration=     8
   0.00000000  0.00000000  0.25000000
   0.33706418  0.00186676  0.25000000
   0.66480261  0.00186676  0.25000000
  -0.00186676  0.33519742  0.25000000
   0.33706418  0.33519742  0.25000000
  -0.00186676  0.66293585  0.25000000
   0.33333334  0.66666669  0.25000000
   0.66480261  0.66293585  0.25000000
   0.11086603  0.22173207  0.25000000
   0.43880856  0.21940428  0.25000000
   0.78059575  0.21940428  0.25000000
   0.11290356  0.55645180  0.25000000
   0.44354823  0.55645180  0.25000000
   0.78059575  0.56119147  0.25000000
   0.11086603  0.88913400  0.25000000
   0.44354823  0.88709647  0.25000000
   0.77826796  0.88913400  0.25000000
Direct configuration=     9
   0.00000000  0.00000000  0.25000000
   0.33703692  0.00185669  0.25000000
   0.66481980  0.00185669  0.25000000
  -0.00185669  0.33518023  0.25000000
   0.33703692  0.33518023  0.25000000
  -0.00185669  0.66296311  0.25000000
   0.33333334  0.66666669  0.25000000
   0.66481980  0.66296311  0.25000000
   0.11086012  0.22172025  0.25000000
   0.43873946  0.21936973  0.25000000
   0.78063030  0.21936973  0.25000000
   0.11293306  0.55646655  0.25000000
   0.44353348  0.55646655  0.25000000
   0.78063030  0.56126057  0.25000000
   0.11086012  0.88913991  0.25000000
   0.44353348  0.88706697  0.25000000
   0.77827978  0.88913991  0.25000000
Direct configuration=    10
   0.00000000  0.00000000  0.25000000
   0.33701255  0.00190447  0.25000000
   0.66489196  0.00190447  0.25000000
  -0.00190447  0.33510807  0.25000000
   0.33701255  0.33510807  0.25000000
  -0.00190447  0.66298748  0.25000000
   0.33333334  0.66666669  0.25000000
   0.66489196  0.66298748  0.25000000
   0.11085529  0.22171057  0.25000000
   0.43868609  0.21934304  0.25000000
   0.78065699  0.21934304  0.25000000
   0.11281850  0.55640926  0.25000000
   0.44359077  0.55640926  0.25000000
   0.78065699  0.56131394  0.25000000
   0.11085529  0.88914474  0.25000000
   0.44359077  0.88718153  0.25000000
   0.77828946  0.88914474  0.25000000
Direct configuration=    11
   0.00000000  0.00000000  0.25000000
   0.33700550  0.00191830  0.25000000
   0.66491283  0.00191830  0.25000000
  -0.00191830  0.33508720  0.25000000
   0.33700550  0.33508720  0.25000000
  -0.00191830  0.66299453  0.25000000
   0.33333334  0.66666669  0.25000000
   0.66491283  0.66299453  0.25000000
   0.11085389  0.22170777  0.25000000
   0.43867065  0.21933532  0.25000000
   0.78066471  0.21933532  0.25000000
   0.11278535  0.55639269  0.25000000
   0.44360734  0.55639269  0.25000000
   0.78066471  0.56132938  0.25000000
   0.11085389  0.88914614  0.25000000
   0.44360734  0.88721468  0.25000000
   0.77829226  0.88914614  0.25000000
Direct configuration=    12
   0.00000000  0.00000000  0.25000000
   0.33700567  0.00191795  0.25000000
   0.66491230  0.00191795  0.25000000
  -0.00191795  0.33508773  0.25000000
   0.33700567  0.33508773  0.25000000
  -0.00191795  0.66299435  0.25000000
   0.33333334  0.66666669  0.25000000
   0.66491230  0.66299435  0.25000000
   0.11085392  0.22170784  0.25000000
   0.43867104  0.21933552  0.25000000
   0.78066451  0.21933552  0.25000000
   0.11278619  0.55639311  0.25000000
   0.44360692  0.55639311  0.25000000
   0.78066451  0.56132899  0.25000000
   0.11085392  0.88914611  0.25000000
   0.44360692  0.88721384  0.25000000
   0.77829219  0.88914611  0.25000000
Direct configuration=    13
   0.00000000  0.00000000  0.25000000
   0.33700911  0.00191121  0.25000000
   0.66490213  0.00191121  0.25000000
  -0.00191121  0.33509790  0.25000000
   0.33700911  0.33509790  0.25000000
  -0.00191121  0.66299092  0.25000000
   0.33333334  0.66666669  0.25000000
   0.66490213  0.66299092  0.25000000
   0.11085460  0.22170921  0.25000000
   0.43867856  0.21933928  0.25000000
   0.78066075  0.21933928  0.25000000
   0.11280234  0.55640119  0.25000000
   0.44359884  0.55640119  0.25000000
   0.78066075  0.56132147  0.25000000
   0.11085460  0.88914543  0.25000000
   0.44359884  0.88719769  0.25000000
   0.77829082  0.88914543  0.25000000
Direct configuration=    14
   0.00000000  0.00000000  0.25000000
   0.33700593  0.00191745  0.25000000
   0.66491156  0.00191745  0.25000000
  -0.00191745  0.33508847  0.25000000
   0.33700593  0.33508847  0.25000000
  -0.00191745  0.66299410  0.25000000
   0.33333334  0.66666669  0.25000000
   0.66491156  0.66299410  0.25000000
   0.11085397  0.22170794  0.25000000
   0.43867159  0.21933579  0.25000000
   0.78066424  0.21933579  0.25000000
   0.11278737  0.55639370  0.25000000
   0.44360633  0.55639370  0.25000000
   0.78066424  0.56132844  0.25000000
   0.11085397  0.88914606  0.25000000
   0.44360633  0.88721266  0.25000000
   0.77829209  0.88914606  0.25000000
Direct configuration=    15
   0.00000000  0.00000000  0.25000000
   0.33700609  0.00191714  0.25000000
   0.66491108  0.00191714  0.25000000
  -0.00191714  0.33508895  0.25000000
   0.33700609  0.33508895  0.25000000
  -0.00191714  0.66299394  0.25000000
   0.33333334  0.66666669  0.25000000
   0.66491108  0.66299394  0.25000000
   0.11085400  0.22170801  0.25000000
   0.43867194  0.21933597  0.25000000
   0.78066406  0.21933597  0.25000000
   0.11278814  0.55639408  0.25000000
   0.44360595  0.55639408  0.25000000
   0.78066406  0.56132809  0.25000000
   0.11085400  0.88914603  0.25000000
   0.44360595  0.88721189  0.25000000
   0.77829202  0.88914603  0.25000000
Direct configuration=    16
   0.00000000  0.00000000  0.25000000
   0.33700351  0.00191284  0.25000000
   0.66490936  0.00191284  0.25000000
  -0.00191284  0.33509067  0.25000000
   0.33700351  0.33509067  0.25000000
  -0.00191284  0.66299652  0.25000000
   0.33333334  0.66666669  0.25000000
   0.66490936  0.66299652  0.25000000
   0.11084483  0.22168966  0.25000000
   0.43867000  0.21933500  0.25000000
   0.78066503  0.21933500  0.25000000
   0.11278348  0.55639175  0.25000000
   0.44360828  0.55639175  0.25000000
   0.78066503  0.56133003  0.25000000
   0.11084483  0.88915520  0.25000000
   0.44360828  0.88721655  0.25000000
   0.77831037  0.88915520  0.25000000
