   1   1   0   0
  0.1580990E+02  0.2817181E-09  0.2817181E-09  0.2817181E-09  0.1500000E-16
  1.000000000000000E-004
  CAR 
 unknown system                          
     64.09235754     -6.35794856  301      8.23953639      1.00000000
     -6.358  0.0000E+00  0.0000E+00
     -6.123  0.0000E+00  0.0000E+00
     -5.888  0.0000E+00  0.0000E+00
     -5.653  0.0000E+00  0.0000E+00
     -5.419  0.0000E+00  0.0000E+00
     -5.184  0.0000E+00  0.0000E+00
     -4.949 -0.3129E-39 -0.7349E-40
     -4.714 -0.1171E-30 -0.2751E-31
     -4.479 -0.2811E-23 -0.6600E-24
     -4.244 -0.4232E-17 -0.9938E-18
     -4.010 -0.4193E-12 -0.9846E-13
     -3.775 -0.2672E-08 -0.6276E-09
     -3.540 -0.1067E-05 -0.2511E-06
     -3.305 -0.1873E-04 -0.4649E-05
     -3.070  0.2071E-03  0.4399E-04
     -2.835  0.9723E-03  0.2723E-03
     -2.601  0.1500E-02  0.6246E-03
     -2.366  0.1863E-02  0.1062E-02
     -2.131  0.2173E-02  0.1572E-02
     -1.896  0.2445E-02  0.2146E-02
     -1.661  0.2667E-02  0.2773E-02
     -1.426  0.2911E-02  0.3456E-02
     -1.192  0.3168E-02  0.4200E-02
     -0.957  0.3250E-02  0.4964E-02
     -0.722  0.3592E-02  0.5807E-02
     -0.487  0.3634E-02  0.6661E-02
     -0.252  0.3904E-02  0.7577E-02
     -0.017  0.4018E-02  0.8521E-02
      0.217  0.4244E-02  0.9518E-02
      0.452  0.4297E-02  0.1053E-01
      0.687  0.4636E-02  0.1162E-01
      0.922  0.4491E-02  0.1267E-01
      1.157  0.5026E-02  0.1385E-01
      1.392  0.4736E-02  0.1496E-01
      1.626  0.5341E-02  0.1622E-01
      1.861  0.5090E-02  0.1741E-01
      2.096  0.5360E-02  0.1867E-01
      2.331  0.5770E-02  0.2003E-01
      2.566  0.5294E-02  0.2127E-01
      2.801  0.6046E-02  0.2269E-01
      3.035  0.6024E-02  0.2410E-01
      3.270  0.5663E-02  0.2543E-01
      3.505  0.6796E-02  0.2703E-01
      3.740  0.6096E-02  0.2846E-01
      3.975  0.6171E-02  0.2991E-01
      4.210  0.6905E-02  0.3153E-01
      4.444  0.6571E-02  0.3307E-01
      4.679  0.6546E-02  0.3461E-01
      4.914  0.7559E-02  0.3639E-01
      5.149  0.6974E-02  0.3802E-01
      5.384  0.7529E-02  0.3979E-01
      5.619  0.7959E-02  0.4166E-01
      5.853  0.7335E-02  0.4338E-01
      6.088  0.7020E-02  0.4503E-01
      6.323  0.7186E-02  0.4672E-01
      6.558  0.7118E-02  0.4839E-01
      6.793  0.6753E-02  0.4998E-01
      7.028  0.7497E-02  0.5174E-01
      7.262  0.8023E-02  0.5362E-01
      7.497  0.7952E-02  0.5549E-01
      7.732  0.7392E-02  0.5723E-01
      7.967  0.7345E-02  0.5895E-01
      8.202  0.8400E-02  0.6092E-01
      8.437  0.7698E-02  0.6273E-01
      8.671  0.8029E-02  0.6462E-01
      8.906  0.9244E-02  0.6679E-01
      9.141  0.8227E-02  0.6872E-01
      9.376  0.7757E-02  0.7054E-01
      9.611  0.8701E-02  0.7258E-01
      9.846  0.9395E-02  0.7479E-01
     10.080  0.7652E-02  0.7659E-01
     10.315  0.8923E-02  0.7868E-01
     10.550  0.9660E-02  0.8095E-01
     10.785  0.8529E-02  0.8295E-01
     11.020  0.9066E-02  0.8508E-01
     11.255  0.9446E-02  0.8730E-01
     11.489  0.9311E-02  0.8949E-01
     11.724  0.9533E-02  0.9173E-01
     11.959  0.9664E-02  0.9400E-01
     12.194  0.9209E-02  0.9616E-01
     12.429  0.1036E-01  0.9859E-01
     12.664  0.1003E-01  0.1009E+00
     12.898  0.9447E-02  0.1032E+00
     13.133  0.1063E-01  0.1057E+00
     13.368  0.1073E-01  0.1082E+00
     13.603  0.1028E-01  0.1106E+00
     13.838  0.1066E-01  0.1131E+00
     14.073  0.1234E-01  0.1160E+00
     14.307  0.1133E-01  0.1187E+00
     14.542  0.1161E-01  0.1214E+00
     14.777  0.1116E-01  0.1240E+00
     15.012  0.1120E-01  0.1266E+00
     15.247  0.1101E-01  0.1292E+00
     15.482  0.1011E-01  0.1316E+00
     15.716  0.1139E-01  0.1343E+00
     15.951  0.1050E-01  0.1367E+00
     16.186  0.1020E-01  0.1391E+00
     16.421  0.1133E-01  0.1418E+00
     16.656  0.9996E-02  0.1441E+00
     16.891  0.1126E-01  0.1468E+00
     17.125  0.1005E-01  0.1491E+00
     17.360  0.1075E-01  0.1517E+00
     17.595  0.1098E-01  0.1542E+00
     17.830  0.1018E-01  0.1566E+00
     18.065  0.1134E-01  0.1593E+00
     18.300  0.1083E-01  0.1618E+00
     18.534  0.1161E-01  0.1646E+00
     18.769  0.1107E-01  0.1672E+00
     19.004  0.1124E-01  0.1698E+00
     19.239  0.1189E-01  0.1726E+00
     19.474  0.1179E-01  0.1754E+00
     19.709  0.1288E-01  0.1784E+00
     19.943  0.1244E-01  0.1813E+00
     20.178  0.1488E-01  0.1848E+00
     20.413  0.1292E-01  0.1878E+00
     20.648  0.1298E-01  0.1909E+00
     20.883  0.1339E-01  0.1940E+00
     21.118  0.1349E-01  0.1972E+00
     21.353  0.1250E-01  0.2001E+00
     21.587  0.1286E-01  0.2032E+00
     21.822  0.1228E-01  0.2060E+00
     22.057  0.1080E-01  0.2086E+00
     22.292  0.1304E-01  0.2116E+00
     22.527  0.1304E-01  0.2147E+00
     22.762  0.1107E-01  0.2173E+00
     22.996  0.1218E-01  0.2202E+00
     23.231  0.1328E-01  0.2233E+00
     23.466  0.1504E-01  0.2268E+00
     23.701  0.1332E-01  0.2299E+00
     23.936  0.1388E-01  0.2332E+00
     24.171  0.1225E-01  0.2361E+00
     24.405  0.1373E-01  0.2393E+00
     24.640  0.1445E-01  0.2427E+00
     24.875  0.1450E-01  0.2461E+00
     25.110  0.1336E-01  0.2492E+00
     25.345  0.1360E-01  0.2524E+00
     25.580  0.1702E-01  0.2564E+00
     25.814  0.1416E-01  0.2597E+00
     26.049  0.1395E-01  0.2630E+00
     26.284  0.1555E-01  0.2667E+00
     26.519  0.1352E-01  0.2698E+00
     26.754  0.1634E-01  0.2737E+00
     26.989  0.1495E-01  0.2772E+00
     27.223  0.1443E-01  0.2806E+00
     27.458  0.1517E-01  0.2841E+00
     27.693  0.1296E-01  0.2872E+00
     27.928  0.1412E-01  0.2905E+00
     28.163  0.1567E-01  0.2942E+00
     28.398  0.1351E-01  0.2974E+00
     28.632  0.1328E-01  0.3005E+00
     28.867  0.1480E-01  0.3040E+00
     29.102  0.1458E-01  0.3074E+00
     29.337  0.1619E-01  0.3112E+00
     29.572  0.1689E-01  0.3151E+00
     29.807  0.1634E-01  0.3190E+00
     30.041  0.1508E-01  0.3225E+00
     30.276  0.1582E-01  0.3262E+00
     30.511  0.1632E-01  0.3301E+00
     30.746  0.1633E-01  0.3339E+00
     30.981  0.1469E-01  0.3374E+00
     31.216  0.1648E-01  0.3412E+00
     31.450  0.1540E-01  0.3448E+00
     31.685  0.1544E-01  0.3485E+00
     31.920  0.1771E-01  0.3526E+00
     32.155  0.1662E-01  0.3565E+00
     32.390  0.1699E-01  0.3605E+00
     32.625  0.1831E-01  0.3648E+00
     32.859  0.1534E-01  0.3684E+00
     33.094  0.1707E-01  0.3724E+00
     33.329  0.1737E-01  0.3765E+00
     33.564  0.1693E-01  0.3805E+00
     33.799  0.1531E-01  0.3841E+00
     34.034  0.1459E-01  0.3875E+00
     34.268  0.1335E-01  0.3906E+00
     34.503  0.1250E-01  0.3936E+00
     34.738  0.1425E-01  0.3969E+00
     34.973  0.1046E-01  0.3994E+00
     35.208  0.9634E-02  0.4016E+00
     35.443  0.8376E-02  0.4036E+00
     35.677  0.8374E-02  0.4056E+00
     35.912  0.8056E-02  0.4075E+00
     36.147  0.6958E-02  0.4091E+00
     36.382  0.6257E-02  0.4106E+00
     36.617  0.5727E-02  0.4119E+00
     36.852  0.5924E-02  0.4133E+00
     37.086  0.8967E-02  0.4154E+00
     37.321  0.8468E-02  0.4174E+00
     37.556  0.8344E-02  0.4194E+00
     37.791  0.8674E-02  0.4214E+00
     38.026  0.9889E-02  0.4237E+00
     38.261  0.1105E-01  0.4263E+00
     38.495  0.1148E-01  0.4290E+00
     38.730  0.1013E-01  0.4314E+00
     38.965  0.1140E-01  0.4341E+00
     39.200  0.1078E-01  0.4366E+00
     39.435  0.1206E-01  0.4394E+00
     39.670  0.1338E-01  0.4426E+00
     39.904  0.1244E-01  0.4455E+00
     40.139  0.1384E-01  0.4487E+00
     40.374  0.1374E-01  0.4520E+00
     40.609  0.1450E-01  0.4554E+00
     40.844  0.1760E-01  0.4595E+00
     41.079  0.2060E-01  0.4644E+00
     41.313  0.1999E-01  0.4690E+00
     41.548  0.1967E-01  0.4737E+00
     41.783  0.1919E-01  0.4782E+00
     42.018  0.1802E-01  0.4824E+00
     42.253  0.1863E-01  0.4868E+00
     42.488  0.1822E-01  0.4911E+00
     42.722  0.1791E-01  0.4953E+00
     42.957  0.2081E-01  0.5002E+00
     43.192  0.1957E-01  0.5047E+00
     43.427  0.1970E-01  0.5094E+00
     43.662  0.1852E-01  0.5137E+00
     43.897  0.2246E-01  0.5190E+00
     44.131  0.2042E-01  0.5238E+00
     44.366  0.1962E-01  0.5284E+00
     44.601  0.2176E-01  0.5335E+00
     44.836  0.2265E-01  0.5388E+00
     45.071  0.1835E-01  0.5431E+00
     45.306  0.1769E-01  0.5473E+00
     45.540  0.1690E-01  0.5513E+00
     45.775  0.1723E-01  0.5553E+00
     46.010  0.1764E-01  0.5595E+00
     46.245  0.1440E-01  0.5628E+00
     46.480  0.1436E-01  0.5662E+00
     46.715  0.1601E-01  0.5700E+00
     46.949  0.1687E-01  0.5739E+00
     47.184  0.1871E-01  0.5783E+00
     47.419  0.1922E-01  0.5828E+00
     47.654  0.2160E-01  0.5879E+00
     47.889  0.1850E-01  0.5923E+00
     48.124  0.1828E-01  0.5965E+00
     48.358  0.1724E-01  0.6006E+00
     48.593  0.1777E-01  0.6048E+00
     48.828  0.1961E-01  0.6094E+00
     49.063  0.1506E-01  0.6129E+00
     49.298  0.1382E-01  0.6162E+00
     49.533  0.1224E-01  0.6190E+00
     49.767  0.1500E-01  0.6226E+00
     50.002  0.1688E-01  0.6265E+00
     50.237  0.1598E-01  0.6303E+00
     50.472  0.1639E-01  0.6341E+00
     50.707  0.1299E-01  0.6372E+00
     50.942  0.1400E-01  0.6405E+00
     51.176  0.1212E-01  0.6433E+00
     51.411  0.1056E-01  0.6458E+00
     51.646  0.7920E-02  0.6476E+00
     51.881  0.8023E-02  0.6495E+00
     52.116  0.6121E-02  0.6510E+00
     52.351  0.2408E-02  0.6515E+00
     52.585  0.5185E-03  0.6517E+00
     52.820  0.1201E-03  0.6517E+00
     53.055  0.3572E-03  0.6518E+00
     53.290  0.3558E-03  0.6518E+00
     53.525  0.9836E-03  0.6521E+00
     53.760  0.6719E-03  0.6522E+00
     53.994 -0.3990E-04  0.6522E+00
     54.229 -0.4158E-05  0.6522E+00
     54.464 -0.1537E-04  0.6522E+00
     54.699  0.2305E-03  0.6523E+00
     54.934  0.3557E-03  0.6524E+00
     55.169  0.6576E-03  0.6525E+00
     55.403  0.4047E-03  0.6526E+00
     55.638 -0.2880E-04  0.6526E+00
     55.873 -0.2723E-05  0.6526E+00
     56.108 -0.1368E-05  0.6526E+00
     56.343  0.1339E-03  0.6526E+00
     56.578  0.3230E-03  0.6527E+00
     56.812  0.4240E-03  0.6528E+00
     57.047  0.1669E-03  0.6528E+00
     57.282 -0.1618E-04  0.6528E+00
     57.517  0.1212E-05  0.6528E+00
     57.752  0.1643E-04  0.6528E+00
     57.987  0.1211E-03  0.6529E+00
     58.221  0.2593E-03  0.6529E+00
     58.456  0.1868E-03  0.6530E+00
     58.691  0.2117E-06  0.6530E+00
     58.926 -0.1080E-05  0.6530E+00
     59.161  0.2037E-04  0.6530E+00
     59.396  0.5437E-04  0.6530E+00
     59.631  0.1602E-03  0.6530E+00
     59.865  0.3301E-04  0.6530E+00
     60.100 -0.4176E-05  0.6530E+00
     60.335  0.2052E-04  0.6530E+00
     60.570  0.4265E-04  0.6531E+00
     60.805  0.1428E-04  0.6531E+00
     61.040  0.2926E-05  0.6531E+00
     61.274  0.1521E-06  0.6531E+00
     61.509 -0.5396E-07  0.6531E+00
     61.744 -0.2874E-09  0.6531E+00
     61.979 -0.7314E-13  0.6531E+00
     62.214 -0.1060E-17  0.6531E+00
     62.449  0.0000E+00  0.6531E+00
     62.683  0.0000E+00  0.6531E+00
     62.918  0.0000E+00  0.6531E+00
     63.153  0.0000E+00  0.6531E+00
     63.388  0.0000E+00  0.6531E+00
     63.623  0.0000E+00  0.6531E+00
     63.858  0.0000E+00  0.6531E+00
     64.092  0.0000E+00  0.6531E+00
