    1    1   49    1
  0.1580990E+02  0.2817181E-09  0.2817181E-09  0.2817181E-09  0.1500000E-16
  1.000000000000000E-004
  CAR 
 unknown system                          
      3    897     16
 
  0.0000000E+00  0.0000000E+00  0.0000000E+00  0.3051758E-04
    1       -3.155662   1.000000
    2       21.046197   0.000000
    3       21.046197   0.000000
    4       21.046198   0.000000
    5       22.698441   0.000000
    6       22.698441   0.000000
    7       22.698441   0.000000
    8       25.167818   0.000000
    9       27.933690   0.000000
   10       27.933690   0.000000
   11       31.213980   0.000000
   12       33.541077   0.000000
   13       33.541077   0.000000
   14       33.541077   0.000000
   15       42.738502   0.000000
   16       60.890071   0.000000
 
  0.3125000E-01 -0.1067752E-17  0.1159127E-17  0.2441406E-03
    1       -3.128418   1.000000
    2       20.423824   0.000000
    3       20.937983   0.000000
    4       20.937983   0.000000
    5       22.849168   0.000000
    6       22.849168   0.000000
    7       23.021329   0.000000
    8       25.450030   0.000000
    9       27.770588   0.000000
   10       27.770589   0.000000
   11       31.087417   0.000000
   12       33.708229   0.000000
   13       33.758388   0.000000
   14       33.758388   0.000000
   15       42.844170   0.000000
   16       60.522367   0.000000
 
  0.6250000E-01 -0.2135505E-17  0.2318254E-17  0.2441406E-03
    1       -3.046686   1.000000
    2       19.271435   0.000000
    3       20.691261   0.000000
    4       20.691262   0.000000
    5       23.221195   0.000000
    6       23.221195   0.000000
    7       23.311689   0.000000
    8       26.261472   0.000000
    9       27.345535   0.000000
   10       27.345536   0.000000
   11       30.761515   0.000000
   12       34.161473   0.000000
   13       34.347617   0.000000
   14       34.347618   0.000000
   15       43.153350   0.000000
   16       59.473220   0.000000
 
  0.9375000E-01 -0.3175667E-17  0.3477381E-17  0.2441406E-03
    1       -2.910596   1.000000
    2       18.006612   0.000000
    3       20.406696   0.000000
    4       20.406696   0.000000
    5       23.373985   0.000000
    6       23.705395   0.000000
    7       23.705395   0.000000
    8       26.782382   0.000000
    9       26.782382   0.000000
   10       27.384954   0.000000
   11       30.317001   0.000000
   12       34.834681   0.000000
   13       35.192326   0.000000
   14       35.192326   0.000000
   15       43.645621   0.000000
   16       58.004928   0.000000
 
  0.1250000E+00 -0.4271009E-17  0.4636508E-17  0.2441406E-03
    1       -2.720298   1.000000
    2       16.718765   0.000000
    3       20.130949   0.000000
    4       20.130950   0.000000
    5       23.325526   0.000000
    6       24.222571   0.000000
    7       24.222571   0.000000
    8       26.200363   0.000000
    9       26.200364   0.000000
   10       28.620267   0.000000
   11       29.802489   0.000000
   12       35.697100   0.000000
   13       36.203597   0.000000
   14       36.203598   0.000000
   15       44.294443   0.000000
   16       56.366880   0.000000
 
  0.1562500E+00  0.1600132E-17 -0.1143259E-17  0.2441406E-03
    1       -2.476031   1.000000
    2       15.438025   0.000000
    3       19.882676   0.000000
    4       19.882676   0.000000
    5       23.234168   0.000000
    6       24.585692   0.000000
    7       24.585692   0.000000
    8       25.817111   0.000000
    9       25.817112   0.000000
   10       29.244306   0.000000
   11       29.879523   0.000000
   12       36.735230   0.000000
   13       37.328299   0.000000
   14       37.328300   0.000000
   15       45.073044   0.000000
   16       54.680908   0.000000
 
  0.1875000E+00 -0.6351333E-17  0.6954762E-17  0.2441406E-03
    1       -2.178108   1.000000
    2       14.178467   0.000000
    3       19.670011   0.000000
    4       19.670011   0.000000
    5       23.133155   0.000000
    6       24.377686   0.000000
    7       24.377686   0.000000
    8       26.067456   0.000000
    9       26.067457   0.000000
   10       28.665384   0.000000
   11       31.123347   0.000000
   12       37.936085   0.000000
   13       38.533809   0.000000
   14       38.533809   0.000000
   15       45.957337   0.000000
   16       53.005134   0.000000
 
  0.2187500E+00 -0.4801917E-18  0.1119814E-17  0.2441406E-03
    1       -1.826842   1.000000
    2       12.947830  -0.000000
    3       19.496954   0.000000
    4       19.496954   0.000000
    5       23.041661   0.000000
    6       23.848136   0.000000
    7       23.848136   0.000000
    8       26.711459   0.000000
    9       26.711461   0.000000
   10       28.078623   0.000000
   11       32.341461   0.000000
   12       39.281022   0.000000
   13       39.794865   0.000000
   14       39.794866   0.000000
   15       46.925900   0.000000
   16       51.375084   0.000000
 
  0.2500000E+00 -0.8542019E-17  0.9273016E-17  0.2441406E-03
    1       -1.422705   1.000000
    2       11.750974  -0.000000
    3       19.365613   0.000000
    4       19.365613   0.000000
    5       22.972167   0.000000
    6       23.274455   0.000000
    7       23.274456   0.000000
    8       27.475385   0.000000
    9       27.475386   0.000000
   10       27.496518   0.000000
   11       33.531820   0.000000
   12       40.745039   0.000000
   13       41.079043   0.000000
   14       41.079044   0.000000
   15       47.953045   0.000000
   16       49.830503   0.000000
 
  0.2812500E+00  0.3901767E-16 -0.1055008E-16  0.2441406E-03
    1       -0.966100   1.000000
    2       10.591226  -0.000000
    3       19.277245   0.000000
    4       19.277245   0.000000
    5       22.716058   0.000000
    6       22.716058   0.000000
    7       22.933252   0.000000
    8       26.929015   0.000000
    9       28.300329   0.000000
   10       28.300330   0.000000
   11       34.696334   0.000000
   12       42.296073   0.000000
   13       42.318928   0.000000
   14       42.318930   0.000000
   15       48.440422   0.000000
   16       48.440424   0.000000
 
  0.3125000E+00  0.3200264E-17 -0.2286518E-17  0.2441406E-03
    1       -0.457595   1.000000
    2        9.470952  -0.000000
    3       19.232620   0.000000
    4       19.232620   0.000000
    5       22.189265   0.000000
    6       22.189265   0.000000
    7       22.931008   0.000000
    8       26.383856   0.000000
    9       29.166177   0.000000
   10       29.166179   0.000000
   11       35.836685   0.000000
   12       43.303622   0.000000
   13       43.303624   0.000000
   14       43.897609   0.000000
   15       47.420120   0.000000
   16       47.420123   0.000000
 
  0.3437500E+00 -0.4751201E-17  0.5756323E-17  0.2441406E-03
    1        0.102233   1.000000
    2        8.392031   0.020186
    3       19.232199   0.000000
    4       19.232199   0.000000
    5       21.700564   0.000000
    6       21.700564   0.000000
    7       22.969671   0.000000
    8       25.867215   0.000000
    9       30.056956   0.000000
   10       30.056958   0.000000
   11       36.948804   0.000000
   12       43.480676   0.000000
   13       43.480678   0.000000
   14       45.499443   0.000000
   15       47.326034   0.000000
   16       47.326038   0.000000
 
  0.3750000E+00 -0.1270267E-16  0.1390952E-16  0.2441406E-03
    1        0.712729   1.000000
    2        7.355927   1.000000
    3       19.276364   0.000000
    4       19.276364   0.000000
    5       21.253414   0.000000
    6       21.253414   0.000000
    7       23.052059   0.000000
    8       25.384228   0.000000
    9       30.952590   0.000000
   10       30.952593   0.000000
   11       38.019221   0.000000
   12       42.761775   0.000000
   13       42.761777   0.000000
   14       46.997344   0.000000
   15       48.255377   0.000000
   16       48.255379   0.000000
 
  0.4062500E+00  0.6991082E-17 -0.5803211E-17  0.2441406E-03
    1        1.373089   1.000000
    2        6.364073   1.000000
    3       19.365338   0.000000
    4       19.365338   0.000000
    5       20.849551   0.000000
    6       20.849551   0.000000
    7       23.180075   0.000000
    8       24.939198   0.000000
    9       31.819386   0.000000
   10       31.819389   0.000000
   11       39.018007   0.000000
   12       41.771603   0.000000
   13       41.771603   0.000000
   14       47.939350   0.000000
   15       49.598497   0.000000
   16       49.598499   0.000000
 
  0.4375000E+00 -0.9603834E-18  0.2239629E-17  0.2441406E-03
    1        2.082157   1.000000
    2        5.418000   1.000000
    3       19.499209   0.000000
    4       19.499210   0.000000
    5       20.490081   0.000000
    6       20.490081   0.000000
    7       23.354297   0.000000
    8       24.535685   0.000000
    9       32.595307   0.000000
   10       32.595310   0.000000
   11       39.885242   0.000000
   12       40.842117   0.000000
   13       40.842118   0.000000
   14       47.711801   0.000000
   15       50.685712   0.000000
   16       51.037085   0.000000
 
  0.4687500E+00 -0.3677779E-16  0.1050319E-16  0.2441406E-03
    1        2.836562   1.000000
    2        4.521289   1.000000
    3       19.677647   0.000000
    4       19.677647   0.000000
    5       20.176084   0.000000
    6       20.176084   0.000000
    7       23.572897   0.000000
    8       24.178344   0.000000
    9       33.170375   0.000000
   10       33.170378   0.000000
   11       40.160366   0.000000
   12       40.160366   0.000000
   13       40.512449   0.000000
   14       47.240351   0.000000
   15       51.746765   0.000000
   16       52.349668   0.000000
 
  0.5000000E+00 -0.1708404E-16  0.1854603E-16  0.1220703E-03
    1        3.521337   1.000000
    2        3.789084   1.000000
    3       19.873119   0.000000
    4       19.873120   0.000000
    5       19.935367   0.000000
    6       19.935367   0.000000
    7       23.778329   0.000000
    8       23.926485   0.000000
    9       33.390053   0.000000
   10       33.390057   0.000000
   11       39.902888   0.000000
   12       39.902889   0.000000
   13       40.749008   0.000000
   14       47.039608   0.000000
   15       52.231037   0.000000
   16       52.990068   0.000000
 
  0.3125000E-01  0.3125000E-01  0.3654987E-18  0.1831055E-03
    1       -3.119336   1.000000
    2       20.623901   0.000000
    3       20.623901   0.000000
    4       20.771659   0.000000
    5       22.611338   0.000000
    6       23.173641   0.000000
    7       23.173642   0.000000
    8       25.515186   0.000000
    9       27.468099   0.000000
   10       27.967194   0.000000
   11       31.125299   0.000000
   12       33.582402   0.000000
   13       33.582402   0.000000
   14       34.174534   0.000000
   15       42.881385   0.000000
   16       60.301654   0.000000
 
  0.6250000E-01  0.3125000E-01  0.1355672E-17  0.7324219E-03
    1       -3.055764   1.000000
    2       19.659263   0.000000
    3       20.274750   0.000000
    4       20.798653   0.000000
    5       22.655283   0.000000
    6       23.536456   0.000000
    7       23.616706   0.000000
    8       26.111986   0.000000
    9       26.928619   0.000000
   10       27.839472   0.000000
   11       30.991371   0.000000
   12       33.821272   0.000000
   13       33.840196   0.000000
   14       34.822670   0.000000
   15       43.128443   0.000000
   16       59.448001   0.000000
 
  0.9375000E-01  0.3125000E-01  0.2501003E-17  0.7324219E-03
    1       -2.937799   1.000000
    2       18.433137   0.000000
    3       19.935769   0.000000
    4       20.697408   0.000000
    5       22.947647   0.000000
    6       23.675106   0.000000
    7       24.126559   0.000000
    8       26.279158   0.000000
    9       27.126516   0.000000
   10       27.457727   0.000000
   11       30.658762   0.000000
   12       34.403733   0.000000
   13       34.467094   0.000000
   14       35.639712   0.000000
   15       43.568070   0.000000
   16       58.036097   0.000000
 
  0.1250000E+00  0.3125000E-01  0.3660130E-17  0.7324219E-03
    1       -2.765583   1.000000
    2       17.156583   0.000000
    3       19.624966   0.000000
    4       20.501719   0.000000
    5       23.374607   0.000000
    6       23.680903   0.000000
    7       24.662596   0.000000
    8       25.612261   0.000000
    9       26.959192   0.000000
   10       28.323904   0.000000
   11       30.199290   0.000000
   12       35.230697   0.000000
   13       35.346548   0.000000
   14       36.594835   0.000000
   15       44.174459   0.000000
   16       56.390907   0.000000
 
  0.1562500E+00  0.3125000E-01  0.4819257E-17  0.7324219E-03
    1       -2.539309   1.000000
    2       15.876200   0.000000
    3       19.350210   0.000000
    4       20.285284   0.000000
    5       23.532808   0.000000
    6       23.885327   0.000000
    7       25.056359   0.000000
    8       25.115697   0.000000
    9       26.530553   0.000000
   10       29.547716   0.000000
   11       29.697144   0.000000
   12       36.246224   0.000000
   13       36.389768   0.000000
   14       37.660964   0.000000
   15       44.919952   0.000000
   16       54.682405   0.000000
 
  0.1875000E+00  0.3125000E-01 -0.9605094E-18  0.7324219E-03
    1       -2.259292   1.000000
    2       14.611449   0.000000
    3       19.115336   0.000000
    4       20.082545   0.000000
    5       23.437431   0.000000
    6       23.831840   0.000000
    7       25.082104   0.000000
    8       25.118836   0.000000
    9       26.583204   0.000000
   10       29.102349   0.000000
   11       30.828581   0.000000
   12       37.425700   0.000000
   13       37.542851   0.000000
   14       38.813809   0.000000
   15       45.779143   0.000000
   16       52.980875   0.000000
 
  0.2187500E+00  0.3125000E-01  0.7082331E-17  0.7324219E-03
    1       -1.925825   1.000000
    2       13.372462  -0.000000
    3       18.922422   0.000000
    4       19.908697   0.000000
    5       23.202657   0.000000
    6       23.441171   0.000000
    7       24.668892   0.000000
    8       25.670283   0.000000
    9       27.143059   0.000000
   10       28.529863   0.000000
   11       32.055113   0.000000
   12       38.750852   0.000000
   13       38.771035   0.000000
   14       40.031009   0.000000
   15       46.729914   0.000000
   16       51.321117   0.000000
 
  0.2500000E+00  0.3125000E-01  0.1302564E-17  0.7324219E-03
    1       -1.539331   1.000000
    2       12.165239  -0.000000
    3       18.772663   0.000000
    4       19.771003   0.000000
    5       22.652750   0.000000
    6       23.318170   0.000000
    7       24.115512   0.000000
    8       26.391336   0.000000
    9       27.871610   0.000000
   10       27.975397   0.000000
   11       33.254789   0.000000
   12       40.041662   0.000000
   13       40.199714   0.000000
   14       41.285133   0.000000
   15       47.748366   0.000000
   16       49.739675   0.000000
 
  0.2812500E+00  0.3125000E-01  0.9455766E-17  0.7324219E-03
    1       -1.100240   1.000000
    2       10.993772  -0.000000
    3       18.666782   0.000000
    4       19.673241   0.000000
    5       22.078392   0.000000
    6       23.262320   0.000000
    7       23.560059   0.000000
    8       26.996113   0.000000
    9       27.617070   0.000000
   10       28.671035   0.000000
   11       34.427860   0.000000
   12       41.303185   0.000000
   13       41.742537   0.000000
   14       42.527411   0.000000
   15       48.286046   0.000000
   16       48.796600   0.000000
 
  0.3125000E+00  0.3125000E-01 -0.1036733E-16  0.7324219E-03
    1       -0.609060   1.000000
    2        9.860803  -0.000000
    3       18.605290   0.000000
    4       19.617545   0.000000
    5       21.532410   0.000000
    6       23.029009   0.000000
    7       23.245394   0.000000
    8       26.721049   0.000000
    9       28.206235   0.000000
   10       29.512909   0.000000
   11       35.576604   0.000000
   12       42.416154   0.000000
   13       43.333253   0.000000
   14       43.628816   0.000000
   15       47.102834   0.000000
   16       48.155505   0.000000
 
  0.3437500E+00  0.3125000E-01 -0.2103768E-17  0.7324219E-03
    1       -0.066373   1.000000
    2        8.768453  -0.000592
    3       18.588503   0.000000
    4       19.605107   0.000000
    5       21.024482   0.000000
    6       22.532256   0.000000
    7       23.268837   0.000000
    8       26.228873   0.000000
    9       29.074273   0.000000
   10       30.378528   0.000000
   11       36.699113   0.000000
   12       42.948987   0.000000
   13       44.076563   0.000000
   14       44.987417   0.000000
   15       46.628853   0.000000
   16       47.691773   0.000000
 
  0.3750000E+00  0.3125000E-01  0.5939072E-17  0.7324219E-03
    1        0.527212   1.000000
    2        7.718343   1.000712
    3       18.616685   0.000000
    4       19.636389   0.000000
    5       20.558749   0.000000
    6       22.074553   0.000000
    7       23.335102   0.000000
    8       25.746798   0.000000
    9       29.985467   0.000000
   10       31.244588   0.000000
   11       37.785596   0.000000
   12       42.501620   0.000000
   13       43.550799   0.000000
   14       46.542646   0.000000
   15       47.276542   0.000000
   16       48.358706   0.000000
 
  0.4062500E+00  0.3125000E-01  0.1409227E-16  0.7324219E-03
    1        1.170916   1.000000
    2        6.711924   1.000000
    3       18.690024   0.000000
    4       19.709962   0.000000
    5       20.139065   0.000000
    6       21.658427   0.000000
    7       23.446258   0.000000
    8       25.295507   0.000000
    9       30.902304   0.000000
   10       32.073128   0.000000
   11       38.812744   0.000000
   12       41.605819   0.000000
   13       42.552915   0.000000
   14       47.795524   0.000000
   15       48.539399   0.000000
   16       49.613129   0.000000
 
  0.4375000E+00  0.3125000E-01 -0.5620462E-17  0.7324219E-03
    1        1.863791   1.000000
    2        5.750675   1.000000
    3       18.808727   0.000000
    4       19.728404   0.000000
    5       19.864279   0.000000
    6       21.285543   0.000000
    7       23.603471   0.000000
    8       24.881882   0.000000
    9       31.784936   0.000000
   10       32.794508   0.000000
   11       39.732647   0.000000
   12       40.729077   0.000000
   13       41.511261   0.000000
   14       47.975250   0.000000
   15       49.993394   0.000000
   16       50.318119   0.000000
 
  0.4687500E+00  0.3125000E-01  0.2422378E-17  0.7324219E-03
    1        2.603682   1.000000
    2        4.836960   1.000000
    3       18.972888   0.000000
    4       19.415635   0.000000
    5       20.011249   0.000000
    6       20.956698   0.000000
    7       23.807170   0.000000
    8       24.509681   0.000000
    9       32.564417   0.000000
   10       33.286835   0.000000
   11       40.110309   0.000000
   12       40.443112   0.000000
   13       40.617024   0.000000
   14       47.511080   0.000000
   15       51.392719   0.000000
   16       51.454655   0.000000
 
  0.5000000E+00  0.3125000E-01  0.1068594E-16  0.7324219E-03
    1        3.372680   1.000000
    2        3.988945   1.000000
    3       19.130001   0.000000
    4       19.182605   0.000000
    5       20.222036   0.000000
    6       20.672413   0.000000
    7       24.055113   0.000000
    8       24.183818   0.000000
    9       33.121596   0.000000
   10       33.398340   0.000000
   11       39.936716   0.000000
   12       39.980523   0.000000
   13       40.845384   0.000000
   14       47.194352   0.000000
   15       52.139539   0.000000
   16       52.666680   0.000000
 
 -0.4687500E+00  0.3125000E-01 -0.1836328E-16  0.7324219E-03
    1        3.118258   1.000000
    2        4.259155   1.000000
    3       18.888789   0.000000
    4       19.437898   0.000000
    5       20.432909   0.000000
    6       20.479395   0.000000
    7       23.896486   0.000000
    8       24.356030   0.000000
    9       33.074328   0.000000
   10       33.302702   0.000000
   11       39.809711   0.000000
   12       40.273308   0.000000
   13       40.771041   0.000000
   14       47.258414   0.000000
   15       51.898121   0.000000
   16       52.323456   0.000000
 
 -0.4375000E+00  0.3125000E-01 -0.1032044E-16  0.7324219E-03
    1        2.352108   1.000000
    2        5.135926   1.000000
    3       18.693052   0.000000
    4       19.738679   0.000000
    5       20.238320   0.000000
    6       20.782144   0.000000
    7       23.660413   0.000000
    8       24.697165   0.000000
    9       32.424276   0.000000
   10       33.046595   0.000000
   11       40.094970   0.000000
   12       40.317444   0.000000
   13       41.008697   0.000000
   14       47.659588   0.000000
   15       50.770474   0.000000
   16       51.191986   0.000000
 
 -0.4062500E+00  0.3125000E-01 -0.2167241E-17  0.7324219E-03
    1        1.627462   1.000000
    2        6.065924   1.000000
    3       18.543047   0.000000
    4       20.078628   0.000000
    5       20.094819   0.000000
    6       21.129604   0.000000
    7       23.470966   0.000000
    8       25.081724   0.000000
    9       31.598630   0.000000
   10       32.458883   0.000000
   11       39.445084   0.000000
   12       40.898417   0.000000
   13       41.978277   0.000000
   14       48.038184   0.000000
   15       49.389367   0.000000
   16       50.057111   0.000000
 
 -0.3750000E+00  0.3125000E-01  0.5985961E-17  0.7324219E-03
    1        0.950831   1.000000
    2        7.042378   1.000000
    3       18.438750   0.000000
    4       19.983264   0.000000
    5       20.476398   0.000000
    6       21.520814   0.000000
    7       23.328382   0.000000
    8       25.506682   0.000000
    9       30.696657   0.000000
   10       31.690432   0.000000
   11       38.487317   0.000000
   12       41.811002   0.000000
   13       43.032482   0.000000
   14       47.438424   0.000000
   15       47.985789   0.000000
   16       49.300798   0.000000
 
 -0.3437500E+00  0.3125000E-01 -0.1361641E-16  0.7324219E-03
    1        0.323741   1.000000
    2        8.063482   1.007830
    3       18.380105   0.000000
    4       19.922825   0.000000
    5       20.911928   0.000000
    6       21.954272   0.000000
    7       23.232332   0.000000
    8       25.968157   0.000000
    9       29.773312   0.000000
   10       30.845493   0.000000
   11       37.438780   0.000000
   12       42.632504   0.000000
   13       43.943132   0.000000
   14       46.037349   0.000000
   15       46.842535   0.000000
   16       48.177596   0.000000
 
 -0.3125000E+00  0.3125000E-01 -0.5573573E-17  0.7324219E-03
    1       -0.252958   1.000000
    2        9.127768  -0.000000
    3       18.366954   0.000000
    4       19.906525   0.000000
    5       21.390642   0.000000
    6       22.426506   0.000000
    7       23.182888   0.000000
    8       26.459729   0.000000
    9       28.858591   0.000000
   10       29.982980   0.000000
   11       36.339859   0.000000
   12       42.778671   0.000000
   13       44.151384   0.000000
   14       44.454653   0.000000
   15       46.543920   0.000000
   16       47.867583   0.000000
 
 -0.2812500E+00  0.3125000E-01  0.2469267E-17  0.7324219E-03
    1       -0.778533   1.000000
    2       10.233764  -0.000000
    3       18.399058   0.000000
    4       19.933912   0.000000
    5       21.910282   0.000000
    6       22.919070   0.000000
    7       23.193066   0.000000
    8       26.967008   0.000000
    9       27.970618   0.000000
   10       29.143814   0.000000
   11       35.209170   0.000000
   12       41.960393   0.000000
   13       42.874668   0.000000
   14       43.370249   0.000000
   15       47.322603   0.000000
   16       48.654545   0.000000
 
 -0.2500000E+00  0.3125000E-01  0.1073283E-16  0.7324219E-03
    1       -1.252416   1.000000
    2       11.379669  -0.000000
    3       18.476133   0.000000
    4       20.004240   0.000000
    5       22.466550   0.000000
    6       23.160481   0.000000
    7       23.525541   0.000000
    8       27.122859   0.000000
    9       27.421160   0.000000
   10       28.410604   0.000000
   11       34.053653   0.000000
   12       40.705110   0.000000
   13       41.377359   0.000000
   14       42.175468   0.000000
   15       48.422460   0.000000
   16       48.622082   0.000000
 
 -0.2187500E+00  0.3125000E-01 -0.9090267E-17  0.7324219E-03
    1       -1.674028   1.000000
    2       12.563144  -0.000000
    3       18.597730   0.000000
    4       20.116259   0.000000
    5       23.048959   0.000000
    6       23.231193   0.000000
    7       24.083159   0.000000
    8       26.330384   0.000000
    9       27.291167   0.000000
   10       28.323974   0.000000
   11       32.873777   0.000000
   12       39.326842   0.000000
   13       39.997053   0.000000
   14       40.889297   0.000000
   15       47.382880   0.000000
   16       50.115219   0.000000
 
 -0.1875000E+00  0.3125000E-01 -0.9370651E-18  0.7324219E-03
    1       -2.042897   1.000000
    2       13.781011   0.000000
    3       18.763249   0.000000
    4       20.267864   0.000000
    5       23.315054   0.000000
    6       23.624176   0.000000
    7       24.642787   0.000000
    8       25.629264   0.000000
    9       26.670842   0.000000
   10       28.812312   0.000000
   11       31.667237   0.000000
   12       37.963071   0.000000
   13       38.724520   0.000000
   14       39.606968   0.000000
   15       46.386338   0.000000
   16       51.713803   0.000000
 
 -0.1562500E+00  0.3125000E-01 -0.6772013E-17  0.7324219E-03
    1       -2.358590   1.000000
    2       15.028516   0.000000
    3       18.971782   0.000000
    4       20.455099   0.000000
    5       23.408898   0.000000
    6       24.020851   0.000000
    7       25.046926   0.000000
    8       25.191699   0.000000
    9       26.205024   0.000000
   10       29.359551   0.000000
   11       30.436978   0.000000
   12       36.690671   0.000000
   13       37.554404   0.000000
   14       38.365048   0.000000
   15       45.466174   0.000000
   16       53.374078   0.000000
 
 -0.1250000E+00  0.3125000E-01  0.1326008E-17  0.7324219E-03
    1       -2.620720   1.000000
    2       16.298104   0.000000
    3       19.222040   0.000000
    4       20.669755   0.000000
    5       23.495936   0.000000
    6       23.821575   0.000000
    7       24.871363   0.000000
    8       25.436060   0.000000
    9       26.359937   0.000000
   10       29.176724   0.000000
   11       29.906902   0.000000
   12       35.556499   0.000000
   13       36.495252   0.000000
   14       37.186510   0.000000
   15       44.644922   0.000000
   16       55.059196   0.000000
 
 -0.9375000E-01  0.3125000E-01 -0.4453759E-17  0.7324219E-03
    1       -2.829008   1.000000
    2       17.575767   0.000000
    3       19.512357   0.000000
    4       20.892895   0.000000
    5       23.351810   0.000000
    6       23.545908   0.000000
    7       24.363745   0.000000
    8       26.041418   0.000000
    9       26.872465   0.000000
   10       27.945973   0.000000
   11       30.384405   0.000000
   12       34.608161   0.000000
   13       35.563414   0.000000
   14       36.093069   0.000000
   15       43.945577   0.000000
   16       56.726687   0.000000
 
 -0.6250000E-01  0.3125000E-01 -0.3294632E-17  0.7324219E-03
    1       -2.983154   1.000000
    2       18.829281   0.000000
    3       19.843470   0.000000
    4       21.076508   0.000000
    5       22.941408   0.000000
    6       23.500535   0.000000
    7       23.840374   0.000000
    8       26.699208   0.000000
    9       26.796783   0.000000
   10       27.382560   0.000000
   11       30.759021   0.000000
   12       33.925813   0.000000
   13       34.776076   0.000000
   14       35.116011   0.000000
   15       43.394563   0.000000
   16       58.296466   0.000000
 
 -0.3125000E-01  0.3125000E-01 -0.2135505E-17  0.3662109E-03
    1       -3.083009   1.000000
    2       19.919158   0.000000
    3       20.274733   0.000000
    4       21.116798   0.000000
    5       22.744651   0.000000
    6       23.276926   0.000000
    7       23.354064   0.000000
    8       25.896089   0.000000
    9       27.308631   0.000000
   10       27.728886   0.000000
   11       30.979546   0.000000
   12       33.624455   0.000000
   13       34.151764   0.000000
   14       34.308116   0.000000
   15       43.019514   0.000000
   16       59.627116   0.000000
 
  0.6250000E-01  0.6250000E-01  0.7309975E-18  0.1831055E-03
    1       -3.010371   1.000000
    2       19.870613   0.000000
    3       19.870614   0.000000
    4       20.128418   0.000000
    5       22.365302   0.000000
    6       24.083825   0.000000
    7       24.083825   0.000000
    8       26.289743   0.000000
    9       26.376367   0.000000
   10       28.067576   0.000000
   11       31.224032   0.000000
   12       33.707645   0.000000
   13       33.707645   0.000000
   14       35.462863   0.000000
   15       43.322435   0.000000
   16       59.079110   0.000000
 
  0.9375000E-01  0.6250000E-01  0.1510831E-17  0.7324219E-03
    1       -2.910593   1.000000
    2       18.843645   0.000000
    3       19.495889   0.000000
    4       20.208399   0.000000
    5       22.338585   0.000000
    6       24.417570   0.000000
    7       24.600458   0.000000
    8       25.565189   0.000000
    9       27.137030   0.000000
   10       27.977771   0.000000
   11       31.185787   0.000000
   12       34.006302   0.000000
   13       34.025599   0.000000
   14       36.214187   0.000000
   15       43.721124   0.000000
   16       57.998135   0.000000
 
  0.1250000E+00  0.6250000E-01  0.2711343E-17  0.7324219E-03
    1       -2.756521   1.000000
    2       17.606013   0.000000
    3       19.157986   0.000000
    4       20.220387   0.000000
    5       22.566774   0.000000