 running on   16 total cores
 distrk:  each k-point on   16 cores,    1 groups
 distr:  one band on    1 cores,   16 groups
 using from now: INCAR     
 vasp.5.4.4.18Apr17-6-g9f103f2a35 (build Apr 03 2020 19:02:54) complex          
  
 POSCAR found type information on POSCAR  Al
 POSCAR found :  1 types and       1 ions
 scaLAPACK will be used

 ----------------------------------------------------------------------------- 
|                                                                             |
|           W    W    AA    RRRRR   N    N  II  N    N   GGGG   !!!           |
|           W    W   A  A   R    R  NN   N  II  NN   N  G    G  !!!           |
|           W    W  A    A  R    R  N N  N  II  N N  N  G       !!!           |
|           W WW W  AAAAAA  RRRRR   N  N N  II  N  N N  G  GGG   !            |
|           WW  WW  A    A  R   R   N   NN  II  N   NN  G    G                |
|           W    W  A    A  R    R  N    N  II  N    N   GGGG   !!!           |
|                                                                             |
|      For optimal performance we recommend to set                            |
|        NCORE= 4 - approx SQRT( number of cores)                             |
|      NCORE specifies how many cores store one orbital (NPAR=cpu/NCORE).     |
|      This setting can  greatly improve the performance of VASP for DFT.     |
|      The default,   NCORE=1            might be grossly inefficient         |
|      on modern multi-core architectures or massively parallel machines.     |
|      Do your own testing !!!!                                               |
|      Unfortunately you need to use the default for GW and RPA calculations. |
|      (for HF NCORE is supported but not extensively tested yet)             |
|                                                                             |
 ----------------------------------------------------------------------------- 

 LDA part: xc-table for Ceperly-Alder, standard interpolation
 POSCAR, INCAR and KPOINTS ok, starting setup
 FFT: planning ...
 WAVECAR not read
 WARNING: random wavefunctions but no delay for mixing, default for NELMDL
 entering main loop
       N       E                     dE             d eps       ncg     rms          rms(c)
DAV:   1    -0.354268105487E+01   -0.35427E+01   -0.84335E+02 29744   0.911E+01
DAV:   2    -0.422287032456E+01   -0.68019E+00   -0.67470E+00 44176   0.780E+00
DAV:   3    -0.422314829883E+01   -0.27797E-03   -0.27797E-03 29568   0.197E-01
DAV:   4    -0.422314843457E+01   -0.13574E-06   -0.13705E-06 51472   0.351E-03
DAV:   5    -0.422314843571E+01   -0.11379E-08   -0.20039E-11 29856   0.803E-06    0.947E-01
DAV:   6    -0.420505376931E+01    0.18095E-01   -0.23701E-03 43424   0.965E-02    0.583E-01
DAV:   7    -0.419329664769E+01    0.11757E-01   -0.63153E-03 43312   0.156E-01    0.240E-02
DAV:   8    -0.419329278740E+01    0.38603E-05   -0.40111E-06 30848   0.780E-03    0.597E-03
DAV:   9    -0.419329233940E+01    0.44800E-06   -0.20911E-07 48272   0.115E-03
   1 F= -.41932923E+01 E0= -.41933121E+01  d E =0.591909E-04
 Found     1 degrees of freedom:
 Adding 6 more for cell shape distortion
 Finite differences POTIM= 0.01500 DOF=   7
 bond charge predicted
       N       E                     dE             d eps       ncg     rms          rms(c)
DAV:   1    -0.419205006618E+01    0.12427E-02   -0.21406E-02117024   0.292E-01    0.650E-02
DAV:   2    -0.419197498799E+01    0.75078E-04   -0.49360E-05 83248   0.257E-02    0.399E-02
DAV:   3    -0.419192596244E+01    0.49026E-04   -0.32315E-05124624   0.104E-02    0.131E-03
DAV:   4    -0.419192594265E+01    0.19791E-07   -0.42200E-08 80176   0.813E-04
   2 F= -.41919259E+01 E0= -.41919101E+01  d E =-.475479E-04
 Finite differences progress:
  Degree of freedom:   1/  7
  Displacement:        1/  2
  Total:               1/ 14
 bond charge predicted
       N       E                     dE             d eps       ncg     rms          rms(c)
DAV:   1    -0.419225293369E+01   -0.32697E-03   -0.65504E-02122896   0.521E-01    0.128E-01
DAV:   2    -0.419196656462E+01    0.28637E-03   -0.13976E-04 82640   0.433E-02    0.790E-02
DAV:   3    -0.419178032974E+01    0.18623E-03   -0.11530E-04125584   0.200E-02    0.250E-03
DAV:   4    -0.419178027389E+01    0.55846E-07   -0.13768E-07 81328   0.150E-03
   3 F= -.41917803E+01 E0= -.41917676E+01  d E =-.379222E-04
 Finite differences progress:
  Degree of freedom:   1/  7
  Displacement:        2/  2
  Total:               2/ 14
 bond charge predicted
       N       E                     dE             d eps       ncg     rms          rms(c)
DAV:   1    -0.419249599149E+01   -0.71566E-03   -0.63293E-02120288   0.494E-01    0.108E-01
DAV:   2    -0.419218193619E+01    0.31406E-03   -0.13591E-04 83712   0.425E-02    0.664E-02
DAV:   3    -0.419193105598E+01    0.25088E-03   -0.10416E-04124416   0.187E-02    0.250E-03
DAV:   4    -0.419192776732E+01    0.32887E-05   -0.81809E-08 81184   0.110E-03    0.846E-04
DAV:   5    -0.419192606269E+01    0.17046E-05   -0.49683E-09 90800   0.173E-04    0.455E-05
DAV:   6    -0.419192597187E+01    0.90824E-07   -0.11060E-10 45536   0.313E-05
   4 F= -.41919260E+01 E0= -.41919101E+01  d E =-.475446E-04
 Finite differences progress:
  Degree of freedom:   2/  7
  Displacement:        1/  2
  Total:               3/ 14
 bond charge predicted
       N       E                     dE             d eps       ncg     rms          rms(c)
DAV:   1    -0.419225253753E+01   -0.32647E-03   -0.63292E-02123008   0.518E-01    0.128E-01
DAV:   2    -0.419196650021E+01    0.28604E-03   -0.14347E-04 83472   0.429E-02    0.790E-02
DAV:   3    -0.419178033299E+01    0.18617E-03   -0.11506E-04123792   0.199E-02    0.250E-03
DAV:   4    -0.419178027288E+01    0.60111E-07   -0.14940E-07 81472   0.154E-03
   5 F= -.41917803E+01 E0= -.41917676E+01  d E =-.379205E-04
 Finite differences progress:
  Degree of freedom:   2/  7
  Displacement:        2/  2
  Total:               4/ 14
 bond charge predicted
       N       E                     dE             d eps       ncg     rms          rms(c)
DAV:   1    -0.419241184248E+01   -0.63151E-03   -0.60133E-02121248   0.494E-01    0.108E-01
DAV:   2    -0.419212818727E+01    0.28366E-03   -0.13946E-04 83520   0.422E-02    0.664E-02
DAV:   3    -0.419192760558E+01    0.20058E-03   -0.10426E-04123328   0.186E-02    0.247E-03
DAV:   4    -0.419192651852E+01    0.10871E-05   -0.90659E-08 82048   0.115E-03    0.875E-04
DAV:   5    -0.419192597921E+01    0.53931E-06   -0.51107E-09 91664   0.176E-04
   6 F= -.41919260E+01 E0= -.41919101E+01  d E =-.475451E-04
 Finite differences progress:
  Degree of freedom:   3/  7
  Displacement:        1/  2
  Total:               5/ 14
 bond charge predicted
       N       E                     dE             d eps       ncg     rms          rms(c)
DAV:   1    -0.419225163648E+01   -0.32512E-03   -0.73531E-02118864   0.527E-01    0.128E-01
DAV:   2    -0.419196646270E+01    0.28517E-03   -0.15378E-04 84304   0.451E-02    0.790E-02
DAV:   3    -0.419178032642E+01    0.18614E-03   -0.11528E-04123264   0.200E-02    0.250E-03
DAV:   4    -0.419178027294E+01    0.53476E-07   -0.14370E-07 81136   0.153E-03
   7 F= -.41917803E+01 E0= -.41917676E+01  d E =-.379224E-04
 Finite differences progress:
  Degree of freedom:   3/  7
  Displacement:        2/  2
  Total:               6/ 14
 bond charge predicted
       N       E                     dE             d eps       ncg     rms          rms(c)
DAV:   1    -0.419324894438E+01   -0.14686E-02   -0.47051E-02411168   0.388E-01    0.102E-01
DAV:   2    -0.419300907701E+01    0.23987E-03   -0.17113E-04302592   0.381E-02    0.599E-02
DAV:   3    -0.419288171105E+01    0.12737E-03   -0.19149E-04433952   0.215E-02    0.404E-03
DAV:   4    -0.419288125042E+01    0.46062E-06   -0.75721E-07300992   0.278E-03
   8 F= -.41928813E+01 E0= -.41928918E+01  d E =0.316987E-04
 Finite differences progress:
  Degree of freedom:   4/  7
  Displacement:        1/  2
  Total:               7/ 14
 bond charge predicted
       N       E                     dE             d eps       ncg     rms          rms(c)
DAV:   1    -0.419385596719E+01   -0.97426E-03   -0.44512E-02398544   0.324E-01    0.160E-01
DAV:   2    -0.419319401309E+01    0.66195E-03   -0.38473E-04319504   0.384E-02    0.914E-02
DAV:   3    -0.419288092834E+01    0.31308E-03   -0.59432E-04421264   0.363E-02    0.416E-03
DAV:   4    -0.419288121282E+01   -0.28448E-06   -0.10798E-06309568   0.407E-03
   9 F= -.41928812E+01 E0= -.41928918E+01  d E =0.316933E-04
 Finite differences progress:
  Degree of freedom:   4/  7
  Displacement:        2/  2
  Total:               8/ 14
 bond charge predicted
       N       E                     dE             d eps       ncg     rms          rms(c)
DAV:   1    -0.419302965157E+01   -0.14872E-03   -0.40232E-02400880   0.318E-01    0.104E-01
DAV:   2    -0.419284301435E+01    0.18664E-03   -0.18227E-04311360   0.303E-02    0.626E-02
DAV:   3    -0.419285482287E+01   -0.11809E-04   -0.31891E-04408416   0.265E-02    0.644E-03
DAV:   4    -0.419288011318E+01   -0.25290E-04   -0.42136E-06317904   0.409E-03    0.218E-04
DAV:   5    -0.419288109735E+01   -0.98417E-06   -0.21373E-08293760   0.518E-04
  10 F= -.41928811E+01 E0= -.41928917E+01  d E =0.316984E-04
 Finite differences progress:
  Degree of freedom:   5/  7
  Displacement:        1/  2
  Total:               9/ 14
 bond charge predicted
       N       E                     dE             d eps       ncg     rms          rms(c)
DAV:   1    -0.419385633999E+01   -0.97623E-03   -0.47091E-02402096   0.334E-01    0.160E-01
DAV:   2    -0.419319389170E+01    0.66245E-03   -0.38179E-04307872   0.381E-02    0.914E-02
DAV:   3    -0.419288088981E+01    0.31300E-03   -0.59419E-04424848   0.363E-02    0.418E-03
DAV:   4    -0.419288117133E+01   -0.28152E-06   -0.10208E-06306224   0.397E-03
  11 F= -.41928812E+01 E0= -.41928917E+01  d E =0.316927E-04
 Finite differences progress:
  Degree of freedom:   5/  7
  Displacement:        2/  2
  Total:              10/ 14
 bond charge predicted
       N       E                     dE             d eps       ncg     rms          rms(c)
DAV:   1    -0.419339921680E+01   -0.51833E-03   -0.40171E-02397952   0.311E-01    0.105E-01
DAV:   2    -0.419307547696E+01    0.32374E-03   -0.20769E-04305248   0.309E-02    0.629E-02
DAV:   3    -0.419288516788E+01    0.19031E-03   -0.35211E-04410304   0.263E-02    0.717E-03
DAV:   4    -0.419288119918E+01    0.39687E-05   -0.47050E-06319520   0.435E-03    0.204E-04
DAV:   5    -0.419288117763E+01    0.21550E-07   -0.24025E-08301168   0.563E-04
  12 F= -.41928812E+01 E0= -.41928917E+01  d E =0.316995E-04
 Finite differences progress:
  Degree of freedom:   6/  7
  Displacement:        1/  2
  Total:              11/ 14
 bond charge predicted
       N       E                     dE             d eps       ncg     rms          rms(c)
DAV:   1    -0.419385671560E+01   -0.97552E-03   -0.42844E-02416288   0.333E-01    0.160E-01
DAV:   2    -0.419319388455E+01    0.66283E-03   -0.37857E-04302832   0.374E-02    0.914E-02
DAV:   3    -0.419288088994E+01    0.31299E-03   -0.59386E-04423824   0.363E-02    0.417E-03
DAV:   4    -0.419288117388E+01   -0.28394E-06   -0.10378E-06303936   0.399E-03
  13 F= -.41928812E+01 E0= -.41928917E+01  d E =0.316927E-04
 Finite differences progress:
  Degree of freedom:   6/  7
  Displacement:        2/  2
  Total:              12/ 14
 bond charge predicted
       N       E                     dE             d eps       ncg     rms          rms(c)
DAV:   1    -0.419278628414E+01    0.94606E-04   -0.32954E-02 46864   0.410E-01    0.705E-02
DAV:   2    -0.419291049957E+01   -0.12422E-03   -0.88503E-05 30000   0.255E-02    0.454E-02
DAV:   3    -0.419328820440E+01   -0.37770E-03   -0.18515E-04 48880   0.212E-02    0.140E-03
DAV:   4    -0.419329084209E+01   -0.26377E-05   -0.33874E-07 30496   0.233E-03    0.438E-04
DAV:   5    -0.419329199723E+01   -0.11551E-05   -0.34416E-09 32832   0.140E-04    0.240E-05
DAV:   6    -0.419329202593E+01   -0.28702E-07   -0.34804E-11 17008   0.199E-05
  14 F= -.41932920E+01 E0= -.41933118E+01  d E =0.591916E-04
 Finite differences progress:
  Degree of freedom:   7/  7
  Displacement:        1/  2
  Total:              13/ 14
 bond charge predicted
       N       E                     dE             d eps       ncg     rms          rms(c)
DAV:   1    -0.419331108075E+01   -0.19084E-04   -0.57250E-02 30544   0.644E-01    0.486E-02
DAV:   2    -0.419330896358E+01    0.21172E-05   -0.21125E-04 42832   0.536E-02    0.307E-02
DAV:   3    -0.419329199006E+01    0.16974E-04   -0.30911E-05 34928   0.909E-03    0.116E-03
DAV:   4    -0.419329202123E+01   -0.31167E-07   -0.25208E-07 42128   0.166E-03
  15 F= -.41932920E+01 E0= -.41933118E+01  d E =0.591918E-04
 Finite differences progress:
  Degree of freedom:   7/  7
  Displacement:        2/  2
  Total:              14/ 14
