unknown system                          
           1
     0.000000    1.992048    1.992048
     1.992048    0.000000    1.992048
     1.992048    1.992048    0.000000
   Al
   1
Direct configuration=     1
   0.00000000  0.00000000  0.00000000
unknown system                          
           1
     0.000000    1.992048    1.992048
     2.021928    0.000000    1.992048
     2.021928    1.992048    0.000000
   Al
   1
Direct configuration=     2
   0.00000000  0.00000000  0.00000000
unknown system                          
           1
     0.000000    1.992048    1.992048
     1.962167    0.000000    1.992048
     1.962167    1.992048    0.000000
   Al
   1
Direct configuration=     3
   0.00000000  0.00000000  0.00000000
unknown system                          
           1
     0.000000    2.021928    1.992048
     1.992048    0.000000    1.992048
     1.992048    2.021928    0.000000
   Al
   1
Direct configuration=     4
   0.00000000  0.00000000  0.00000000
unknown system                          
           1
     0.000000    1.962167    1.992048
     1.992048    0.000000    1.992048
     1.992048    1.962167    0.000000
   Al
   1
Direct configuration=     5
   0.00000000  0.00000000  0.00000000
unknown system                          
           1
     0.000000    1.992048    2.021928
     1.992048    0.000000    2.021928
     1.992048    1.992048    0.000000
   Al
   1
Direct configuration=     6
   0.00000000  0.00000000  0.00000000
unknown system                          
           1
     0.000000    1.992048    1.962167
     1.992048    0.000000    1.962167
     1.992048    1.992048    0.000000
   Al
   1
Direct configuration=     7
   0.00000000  0.00000000  0.00000000
unknown system                          
           1
     0.000000    1.992048    1.992048
     1.992048    0.029881    1.992048
     1.992048    2.021928    0.000000
   Al
   1
Direct configuration=     8
   0.00000000  0.00000000  0.00000000
unknown system                          
           1
     0.000000    1.992048    1.992048
     1.992048   -0.029881    1.992048
     1.992048    1.962167    0.000000
   Al
   1
Direct configuration=     9
   0.00000000  0.00000000  0.00000000
unknown system                          
           1
     0.000000    1.992048    2.021928
     1.992048    0.000000    1.992048
     1.992048    1.992048    0.029881
   Al
   1
Direct configuration=    10
   0.00000000  0.00000000  0.00000000
unknown system                          
           1
     0.000000    1.992048    1.962167
     1.992048    0.000000    1.992048
     1.992048    1.992048   -0.029881
   Al
   1
Direct configuration=    11
   0.00000000  0.00000000  0.00000000
unknown system                          
           1
     0.029881    1.992048    1.992048
     2.021928    0.000000    1.992048
     1.992048    1.992048    0.000000
   Al
   1
Direct configuration=    12
   0.00000000  0.00000000  0.00000000
unknown system                          
           1
    -0.029881    1.992048    1.992048
     1.962167    0.000000    1.992048
     1.992048    1.992048    0.000000
   Al
   1
Direct configuration=    13
   0.00000000  0.00000000  0.00000000
unknown system                          
           1
     0.000000    1.992048    1.992048
     1.992048    0.000000    1.992048
     1.992048    1.992048    0.000000
   Al
   1
Direct configuration=    14
  -0.00376497  0.00376497  0.00376497
unknown system                          
           1
     0.000000    1.992048    1.992048
     1.992048    0.000000    1.992048
     1.992048    1.992048    0.000000
   Al
   1
Direct configuration=    15
   0.00376497 -0.00376497 -0.00376497
