   1   1   0   0
  0.1641025E+02  0.2852398E-09  0.2852398E-09  0.2852398E-09  0.5000000E-15
  1.000000000000000E-004
  CAR 
 unknown system                          
     80.68346186     -7.14801313  301      8.23158413      1.00000000
     -7.148  0.0000E+00  0.0000E+00
     -6.855  0.0000E+00  0.0000E+00
     -6.562  0.0000E+00  0.0000E+00
     -6.270  0.0000E+00  0.0000E+00
     -5.977  0.0000E+00  0.0000E+00
     -5.684  0.0000E+00  0.0000E+00
     -5.391  0.0000E+00  0.0000E+00
     -5.099  0.0000E+00  0.0000E+00
     -4.806 -0.1244E-33 -0.3643E-34
     -4.513 -0.3778E-24 -0.1106E-24
     -4.220 -0.1516E-16 -0.4440E-17
     -3.928 -0.8992E-11 -0.2633E-11
     -3.635 -0.8675E-07 -0.2540E-07
     -3.342 -0.1066E-04 -0.3147E-05
     -3.049  0.1670E-03  0.4574E-04
     -2.756  0.8979E-03  0.3086E-03
     -2.464  0.1428E-02  0.7268E-03
     -2.171  0.1593E-02  0.1193E-02
     -1.878  0.2050E-02  0.1794E-02
     -1.585  0.2224E-02  0.2445E-02
     -1.293  0.2424E-02  0.3154E-02
     -1.000  0.2593E-02  0.3913E-02
     -0.707  0.3292E-02  0.4877E-02
     -0.414  0.2291E-02  0.5548E-02
     -0.121  0.3919E-02  0.6695E-02
      0.171  0.3281E-02  0.7656E-02
      0.464  0.2843E-02  0.8488E-02
      0.757  0.4599E-02  0.9835E-02
      1.050  0.3590E-02  0.1089E-01
      1.342  0.3728E-02  0.1198E-01
      1.635  0.4174E-02  0.1320E-01
      1.928  0.5206E-02  0.1472E-01
      2.221  0.3307E-02  0.1569E-01
      2.513  0.4850E-02  0.1711E-01
      2.806  0.4945E-02  0.1856E-01
      3.099  0.5153E-02  0.2007E-01
      3.392  0.4717E-02  0.2145E-01
      3.685  0.4446E-02  0.2275E-01
      3.977  0.6046E-02  0.2452E-01
      4.270  0.5755E-02  0.2621E-01
      4.563  0.5128E-02  0.2771E-01
      4.856  0.4632E-02  0.2906E-01
      5.148  0.6927E-02  0.3109E-01
      5.441  0.6880E-02  0.3311E-01
      5.734  0.5576E-02  0.3474E-01
      6.027  0.5283E-02  0.3628E-01
      6.319  0.6332E-02  0.3814E-01
      6.612  0.5039E-02  0.3961E-01
      6.905  0.7406E-02  0.4178E-01
      7.198  0.5922E-02  0.4352E-01
      7.491  0.5043E-02  0.4499E-01
      7.783  0.6565E-02  0.4691E-01
      8.076  0.6622E-02  0.4885E-01
      8.369  0.7586E-02  0.5107E-01
      8.662  0.6631E-02  0.5302E-01
      8.954  0.5050E-02  0.5449E-01
      9.247  0.6587E-02  0.5642E-01
      9.540  0.9655E-02  0.5925E-01
      9.833  0.5608E-02  0.6089E-01
     10.126  0.7314E-02  0.6303E-01
     10.418  0.6289E-02  0.6487E-01
     10.711  0.6986E-02  0.6692E-01
     11.004  0.9110E-02  0.6959E-01
     11.297  0.7929E-02  0.7191E-01
     11.589  0.6054E-02  0.7368E-01
     11.882  0.7907E-02  0.7599E-01
     12.175  0.8582E-02  0.7851E-01
     12.468  0.7848E-02  0.8080E-01
     12.760  0.8321E-02  0.8324E-01
     13.053  0.8934E-02  0.8586E-01
     13.346  0.6286E-02  0.8770E-01
     13.639  0.9940E-02  0.9061E-01
     13.932  0.1056E-01  0.9370E-01
     14.224  0.7998E-02  0.9604E-01
     14.517  0.8821E-02  0.9862E-01
     14.810  0.1104E-01  0.1019E+00
     15.103  0.7984E-02  0.1042E+00
     15.395  0.7561E-02  0.1064E+00
     15.688  0.1100E-01  0.1096E+00
     15.981  0.8632E-02  0.1122E+00
     16.274  0.7502E-02  0.1144E+00
     16.566  0.8038E-02  0.1167E+00
     16.859  0.9956E-02  0.1196E+00
     17.152  0.8354E-02  0.1221E+00
     17.445  0.9418E-02  0.1248E+00
     17.738  0.7364E-02  0.1270E+00
     18.030  0.8915E-02  0.1296E+00
     18.323  0.1051E-01  0.1327E+00
     18.616  0.8520E-02  0.1352E+00
     18.909  0.9020E-02  0.1378E+00
     19.201  0.9267E-02  0.1405E+00
     19.494  0.8714E-02  0.1431E+00
     19.787  0.1275E-01  0.1468E+00
     20.080  0.9891E-02  0.1497E+00
     20.373  0.1116E-01  0.1530E+00
     20.665  0.1181E-01  0.1564E+00
     20.958  0.9445E-02  0.1592E+00
     21.251  0.1004E-01  0.1621E+00
     21.544  0.1054E-01  0.1652E+00
     21.836  0.1044E-01  0.1683E+00
     22.129  0.1154E-01  0.1716E+00
     22.422  0.1015E-01  0.1746E+00
     22.715  0.8392E-02  0.1771E+00
     23.007  0.7723E-02  0.1793E+00
     23.300  0.1231E-01  0.1829E+00
     23.593  0.1211E-01  0.1865E+00
     23.886  0.1231E-01  0.1901E+00
     24.179  0.1223E-01  0.1937E+00
     24.471  0.9766E-02  0.1965E+00
     24.764  0.7213E-02  0.1986E+00
     25.057  0.1346E-01  0.2026E+00
     25.350  0.1490E-01  0.2069E+00
     25.642  0.1079E-01  0.2101E+00
     25.935  0.1138E-01  0.2134E+00
     26.228  0.1306E-01  0.2173E+00
     26.521  0.1146E-01  0.2206E+00
     26.813  0.1035E-01  0.2236E+00
     27.106  0.1492E-01  0.2280E+00
     27.399  0.1091E-01  0.2312E+00
     27.692  0.1406E-01  0.2353E+00
     27.985  0.8489E-02  0.2378E+00
     28.277  0.1073E-01  0.2409E+00
     28.570  0.1295E-01  0.2447E+00
     28.863  0.1151E-01  0.2481E+00
     29.156  0.1339E-01  0.2520E+00
     29.448  0.1204E-01  0.2556E+00
     29.741  0.1520E-01  0.2600E+00
     30.034  0.1248E-01  0.2637E+00
     30.327  0.1003E-01  0.2666E+00
     30.620  0.1316E-01  0.2704E+00
     30.912  0.1462E-01  0.2747E+00
     31.205  0.1328E-01  0.2786E+00
     31.498  0.1373E-01  0.2826E+00
     31.791  0.1384E-01  0.2867E+00
     32.083  0.1263E-01  0.2904E+00
     32.376  0.1008E-01  0.2933E+00
     32.669  0.1650E-01  0.2982E+00
     32.962  0.1504E-01  0.3026E+00
     33.254  0.1277E-01  0.3063E+00
     33.547  0.1469E-01  0.3106E+00
     33.840  0.1316E-01  0.3145E+00
     34.133  0.1110E-01  0.3177E+00
     34.426  0.1236E-01  0.3213E+00
     34.718  0.8149E-02  0.3237E+00
     35.011  0.5691E-02  0.3254E+00
     35.304  0.1016E-01  0.3284E+00
     35.597  0.9193E-02  0.3310E+00
     35.889  0.6912E-02  0.3331E+00
     36.182  0.4869E-02  0.3345E+00
     36.475  0.4232E-02  0.3357E+00
     36.768  0.7423E-02  0.3379E+00
     37.060  0.3461E-02  0.3389E+00
     37.353  0.1852E-02  0.3395E+00
     37.646  0.9993E-02  0.3424E+00
     37.939  0.1375E-01  0.3464E+00
     38.232  0.8617E-02  0.3489E+00
     38.524  0.5201E-02  0.3505E+00
     38.817  0.7604E-02  0.3527E+00
     39.110  0.1252E-01  0.3564E+00
     39.403  0.6399E-02  0.3582E+00
     39.695  0.8501E-02  0.3607E+00
     39.988  0.1398E-01  0.3648E+00
     40.281  0.1218E-01  0.3684E+00
     40.574  0.1155E-01  0.3718E+00
     40.867  0.1391E-01  0.3758E+00
     41.159  0.1734E-01  0.3809E+00
     41.452  0.1404E-01  0.3850E+00
     41.745  0.1654E-01  0.3899E+00
     42.038  0.1364E-01  0.3939E+00
     42.330  0.1664E-01  0.3987E+00
     42.623  0.1536E-01  0.4032E+00
     42.916  0.1577E-01  0.4078E+00
     43.209  0.1446E-01  0.4121E+00
     43.501  0.1902E-01  0.4176E+00
     43.794  0.1346E-01  0.4216E+00
     44.087  0.1960E-01  0.4273E+00
     44.380  0.1574E-01  0.4319E+00
     44.673  0.1892E-01  0.4375E+00
     44.965  0.1368E-01  0.4415E+00
     45.258  0.1712E-01  0.4465E+00
     45.551  0.1303E-01  0.4503E+00
     45.844  0.1173E-01  0.4537E+00
     46.136  0.1385E-01  0.4578E+00
     46.429  0.1697E-01  0.4628E+00
     46.722  0.1374E-01  0.4668E+00
     47.015  0.1296E-01  0.4706E+00
     47.308  0.1102E-01  0.4738E+00
     47.600  0.1731E-01  0.4789E+00
     47.893  0.1557E-01  0.4834E+00
     48.186  0.1708E-01  0.4884E+00
     48.479  0.1754E-01  0.4936E+00
     48.771  0.1520E-01  0.4980E+00
     49.064  0.1370E-01  0.5020E+00
     49.357  0.1067E-01  0.5052E+00
     49.650  0.1343E-01  0.5091E+00
     49.942  0.1401E-01  0.5132E+00
     50.235  0.1881E-01  0.5187E+00
     50.528  0.1710E-01  0.5237E+00
     50.821  0.9471E-02  0.5265E+00
     51.114  0.1447E-01  0.5307E+00
     51.406  0.1800E-01  0.5360E+00
     51.699  0.1163E-01  0.5394E+00
     51.992  0.1319E-01  0.5432E+00
     52.285  0.1202E-01  0.5468E+00
     52.577  0.1353E-01  0.5507E+00
     52.870  0.1863E-01  0.5562E+00
     53.163  0.1294E-01  0.5600E+00
     53.456  0.1500E-01  0.5644E+00
     53.748  0.1386E-01  0.5684E+00
     54.041  0.8522E-02  0.5709E+00
     54.334  0.1553E-01  0.5755E+00
     54.627  0.1976E-01  0.5812E+00
     54.920  0.1289E-01  0.5850E+00
     55.212  0.1554E-01  0.5896E+00
     55.505  0.1524E-01  0.5940E+00
     55.798  0.1610E-01  0.5987E+00
     56.091  0.1549E-01  0.6033E+00
     56.383  0.1447E-01  0.6075E+00
     56.676  0.1829E-01  0.6129E+00
     56.969  0.2169E-01  0.6192E+00
     57.262  0.2371E-01  0.6262E+00
     57.555  0.1846E-01  0.6316E+00
     57.847  0.1262E-01  0.6353E+00
     58.140  0.1428E-01  0.6394E+00
     58.433  0.2273E-01  0.6461E+00
     58.726  0.2454E-01  0.6533E+00
     59.018  0.2200E-01  0.6597E+00
     59.311  0.2634E-01  0.6674E+00
     59.604  0.1887E-01  0.6730E+00
     59.897  0.2176E-01  0.6793E+00
     60.189  0.2266E-01  0.6860E+00
     60.482  0.3054E-01  0.6949E+00
     60.775  0.2736E-01  0.7029E+00
     61.068  0.2228E-01  0.7094E+00
     61.361  0.2848E-01  0.7178E+00
     61.653  0.3118E-01  0.7269E+00
     61.946  0.2790E-01  0.7351E+00
     62.239  0.2626E-01  0.7428E+00
     62.532  0.2412E-01  0.7498E+00
     62.824  0.2466E-01  0.7570E+00
     63.117  0.3324E-01  0.7668E+00
     63.410  0.3430E-01  0.7768E+00
     63.703  0.2713E-01  0.7848E+00
     63.995  0.2876E-01  0.7932E+00
     64.288  0.2303E-01  0.7999E+00
     64.581  0.2601E-01  0.8075E+00
     64.874  0.2805E-01  0.8157E+00
     65.167  0.2992E-01  0.8245E+00
     65.459  0.3021E-01  0.8334E+00
     65.752  0.2576E-01  0.8409E+00
     66.045  0.2531E-01  0.8483E+00
     66.338  0.2753E-01  0.8564E+00
     66.630  0.1605E-01  0.8611E+00
     66.923  0.2149E-01  0.8674E+00
     67.216  0.2036E-01  0.8733E+00
     67.509  0.2007E-01  0.8792E+00
     67.802  0.1518E-01  0.8836E+00
     68.094  0.1582E-01  0.8883E+00
     68.387  0.1617E-01  0.8930E+00
     68.680  0.1238E-01  0.8966E+00
     68.973  0.1380E-01  0.9007E+00
     69.265  0.1422E-01  0.9048E+00
     69.558  0.1352E-01  0.9088E+00
     69.851  0.1222E-01  0.9124E+00
     70.144  0.4142E-02  0.9136E+00
     70.436  0.7161E-02  0.9157E+00
     70.729  0.8604E-02  0.9182E+00
     71.022  0.5221E-02  0.9197E+00
     71.315  0.3329E-02  0.9207E+00
     71.608  0.5032E-02  0.9222E+00
     71.900  0.4391E-02  0.9235E+00
     72.193  0.3995E-02  0.9246E+00
     72.486  0.4422E-02  0.9259E+00
     72.779  0.5651E-02  0.9276E+00
     73.071  0.3348E-02  0.9286E+00
     73.364  0.2985E-02  0.9294E+00
     73.657  0.2813E-02  0.9303E+00
     73.950  0.1097E-02  0.9306E+00
     74.242  0.3269E-02  0.9315E+00
     74.535  0.2142E-02  0.9322E+00
     74.828  0.2550E-02  0.9329E+00
     75.121  0.6254E-03  0.9331E+00
     75.414  0.1191E-03  0.9331E+00
     75.706  0.4484E-03  0.9333E+00
     75.999  0.2335E-03  0.9333E+00
     76.292 -0.8124E-05  0.9333E+00
     76.585  0.2067E-05  0.9333E+00
     76.877  0.1764E-04  0.9333E+00
     77.170 -0.2863E-06  0.9333E+00
     77.463 -0.3561E-07  0.9333E+00
     77.756 -0.6759E-11  0.9333E+00
     78.049 -0.1399E-16  0.9333E+00
     78.341  0.0000E+00  0.9333E+00
     78.634  0.0000E+00  0.9333E+00
     78.927  0.0000E+00  0.9333E+00
     79.220  0.0000E+00  0.9333E+00
     79.512  0.0000E+00  0.9333E+00
     79.805  0.0000E+00  0.9333E+00
     80.098  0.0000E+00  0.9333E+00
     80.391  0.0000E+00  0.9333E+00
     80.683  0.0000E+00  0.9333E+00
