    1    1   60    1
  0.1641025E+02  0.2852398E-09  0.2852398E-09  0.2852398E-09  0.5000000E-15
  1.000000000000000E-004
  CAR 
 unknown system                          
      3    195     28
 
  0.0000000E+00  0.0000000E+00  0.0000000E+00  0.1714678E-03
    1       -3.155673   1.000000
    2       21.045996   0.000000
    3       21.045996   0.000000
    4       21.045996   0.000000
    5       22.698008   0.000000
    6       22.698009   0.000000
    7       22.698009   0.000000
    8       25.167703   0.000000
    9       27.933338   0.000000
   10       27.933338   0.000000
   11       31.213251   0.000000
   12       33.540575   0.000000
   13       33.540575   0.000000
   14       33.540575   0.000000
   15       42.737852   0.000000
   16       60.889158   0.000000
   17       60.889158   0.000000
   18       60.889161   0.000000
   19       61.686227   0.000000
   20       62.473279   0.000000
   21       62.473697   0.000000
   22       62.473697   0.000000
   23       64.742936   0.000000
   24       64.742936   0.000000
   25       66.909087   0.000000
   26       66.909087   0.000000
   27       66.909091   0.000000
   28       76.691122   0.000000
 
  0.5555556E-01  0.0000000E+00  0.0000000E+00  0.1371742E-02
    1       -3.069570   1.000000
    2       19.542747   0.000000
    3       20.751656   0.000000
    4       20.751656   0.000000
    5       23.125343   0.000000
    6       23.125344   0.000000
    7       23.270491   0.000000
    8       26.044417   0.000000
    9       27.455929   0.000000
   10       27.455929   0.000000
   11       30.845888   0.000000
   12       34.039407   0.000000
   13       34.190134   0.000000
   14       34.190134   0.000000
   15       43.067303   0.000000
   16       59.752806   0.000000
   17       59.752815   0.000000
   18       60.166465   0.000000
   19       61.614859   0.000000
   20       62.525725   0.000000
   21       62.526057   0.000000
   22       63.189112   0.000000
   23       63.799228   0.000000
   24       63.799261   0.000000
   25       66.985529   0.000000
   26       69.061175   0.000000
   27       69.061179   0.000000
   28       75.812789   0.000000
 
  0.1111111E+00  0.0000000E+00  0.0000000E+00  0.1371742E-02
    1       -2.811589   1.000000
    2       17.291241   0.000000
    3       20.250556   0.000000
    4       20.250557   0.000000
    5       23.354848   0.000000
    6       23.994401   0.000000
    7       23.994401   0.000000
    8       26.452370   0.000000
    9       26.452370   0.000000
   10       28.064658   0.000000
   11       30.037104   0.000000
   12       35.290759   0.000000
   13       35.737084   0.000000
   14       35.737084   0.000000
   15       43.987849   0.000000
   16       57.100177   0.000000
   17       57.100183   0.000000
   18       58.826573   0.000000
   19       61.635408   0.000000
   20       62.618217   0.000000
   21       62.618544   0.000000
   22       63.457795   0.000000
   23       63.457851   0.000000
   24       64.153162   0.000000
   25       67.213375   0.000000
   26       72.241187   0.000000
   27       72.241210   0.000000
   28       73.953343   0.000000
 
  0.1666667E+00  0.0000000E+00  0.0000000E+00  0.1371742E-02
    1       -2.382719   1.000000
    2       15.015149   0.000000
    3       19.807288   0.000000
    4       19.807288   0.000000
    5       23.200082   0.000000
    6       24.585782   0.000000
    7       24.585783   0.000000
    8       25.822436   0.000000
    9       25.822437   0.000000
   10       29.052609   0.000000
   11       30.296066   0.000000
   12       37.117482   0.000000
   13       37.721854   0.000000
   14       37.721854   0.000000
   15       45.356492   0.000000
   16       54.112578   0.000000
   17       54.112581   0.000000
   18       57.307696   0.000000
   19       61.702275   0.000000
   20       62.710179   0.000000
   21       62.710532   0.000000
   22       63.547285   0.000000
   23       63.547333   0.000000
   24       64.867364   0.000000
   25       67.587444   0.000000
   26       71.966568   0.000000
   27       74.143597   0.000000
   28       74.143669   0.000000
 
  0.2222222E+00  0.0000000E+00  0.0000000E+00  0.1371742E-02
    1       -1.784587   1.000000
    2       12.812914  -0.000000
    3       19.479977   0.000000
    4       19.479977   0.000000
    5       23.032316   0.000000
    6       23.784155   0.000000
    7       23.784155   0.000000
    8       26.791726   0.000000
    9       26.791728   0.000000
   10       28.012902   0.000000
   11       32.474555   0.000000
   12       39.437396   0.000000
   13       39.936234   0.000000
   14       39.936235   0.000000
   15       47.036499   0.000000
   16       51.197331   0.000000
   17       51.197333   0.000000
   18       55.694568   0.000000
   19       61.793413   0.000000
   20       62.783328   0.000000
   21       62.783714   0.000000
   22       63.802318   0.000000
   23       63.802356   0.000000
   24       64.986898   0.000000
   25       68.098224   0.000000
   26       70.317390   0.000000
   27       72.301420   0.000000
   28       72.301435   0.000000
 
  0.2777778E+00  0.0000000E+00  0.0000000E+00  0.1371742E-02
    1       -1.019450   1.000000
    2       10.718015  -0.000000
    3       19.284629   0.000000
    4       19.284629   0.000000
    5       22.776316   0.000000
    6       22.776317   0.000000
    7       22.935530   0.000000
    8       26.990598   0.000000
    9       28.205971   0.000000
   10       28.205972   0.000000
   11       34.567697   0.000000
   12       42.119778   0.000000
   13       42.186966   0.000000
   14       42.186968   0.000000
   15       48.582292   0.000000
   16       48.582294   0.000000
   17       48.877099   0.000000
   18       54.099124   0.000000
   19       61.895576   0.000000
   20       62.829193   0.000000
   21       62.829583   0.000000
   22       64.079452   0.000000
   23       64.079492   0.000000
   24       64.105972   0.000000
   25       68.726433   0.000000
   26       69.357849   0.000000
   27       69.648157   0.000000
   28       69.648160   0.000000
 
  0.3333333E+00  0.0000000E+00  0.0000000E+00  0.1371742E-02
    1       -0.090105   1.000000
    2        8.746831  -0.000818
    3       19.227100   0.000000
    4       19.227101   0.000000
    5       21.858607   0.000000
    6       21.858608   0.000000
    7       22.951638   0.000000
    8       26.035388   0.000000
    9       29.757584   0.000000
   10       29.757586   0.000000
   11       36.581197   0.000000
   12       43.544081   0.000000
   13       43.544083   0.000000
   14       44.968996   0.000000
   15       47.218417   0.000000
   16       47.218420   0.000000
   17       50.216511   0.000000
   18       53.251782   0.000000
   19       61.847330   0.000000
   20       62.408357   0.000000
   21       62.683053   0.000000
   22       62.683395   0.000000
   23       64.063248   0.000000
   24       64.063341   0.000000
   25       67.119098   0.000000
   26       67.119101   0.000000
   27       68.805574   0.000000
   28       69.435304   0.000000
 
  0.3888889E+00  0.0000000E+00  0.0000000E+00  0.1371742E-02
    1        1.000052   1.000000
    2        6.909435   1.000000
    3       19.310075   0.000000
    4       19.310075   0.000000
    5       21.068177   0.000000
    6       21.068177   0.000000
    7       23.102925   0.000000
    8       25.181155   0.000000
    9       31.343548   0.000000
   10       31.343551   0.000000
   11       38.474009   0.000000
   12       42.328070   0.000000
   13       42.328071   0.000000
   14       47.544261   0.000000
   15       48.825318   0.000000
   16       48.825321   0.000000
   17       49.746183   0.000000
   18       54.856947   0.000000
   19       60.004221   0.000000
   20       61.370814   0.000000
   21       61.370914   0.000000
   22       62.153929   0.000000
   23       63.564847   0.000000
   24       63.565180   0.000000
   25       66.134900   0.000000
   26       66.134905   0.000000
   27       68.080226   0.000000
   28       70.151681   0.000000
 
  0.4444444E+00  0.0000000E+00  0.0000000E+00  0.1371742E-02
    1        2.246036   1.000000
    2        5.214118   1.000000
    3       19.534755   0.000000
    4       19.534756   0.000000
    5       20.416018   0.000000
    6       20.416019   0.000000
    7       23.398839   0.000000
    8       24.451598   0.000000
    9       32.744952   0.000000
   10       32.744956   0.000000
   11       40.049671   0.000000
   12       40.662241   0.000000
   13       40.662242   0.000000
   14       47.598951   0.000000
   15       50.937699   0.000000
   16       51.349227   0.000000
   17       51.349229   0.000000
   18       57.646804   0.000000
   19       57.857822   0.000000
   20       58.768573   0.000000
   21       58.768600   0.000000
   22       62.096779   0.000000
   23       63.451931   0.000000
   24       63.452317   0.000000
   25       65.401242   0.000000
   26       66.142768   0.000000
   27       66.142774   0.000000
   28       68.772951   0.000000
 
  0.5000000E+00  0.0000000E+00  0.0000000E+00  0.6858711E-03
    1        3.521237   1.000000
    2        3.788977   1.000000
    3       19.872797   0.000000
    4       19.872798   0.000000
    5       19.935031   0.000000
    6       19.935031   0.000000
    7       23.777936   0.000000
    8       23.926043   0.000000
    9       33.388303   0.000000
   10       33.388308   0.000000
   11       39.901653   0.000000
   12       39.901654   0.000000
   13       40.747728   0.000000
   14       47.038389   0.000000
   15       52.227704   0.000000
   16       52.986856   0.000000
   17       52.986859   0.000000
   18       56.586234   0.000000
   19       57.051074   0.000000
   20       57.051094   0.000000
   21       60.711395   0.000000
   22       60.820445   0.000000
   23       63.337394   0.000000
   24       63.417867   0.000000
   25       63.418298   0.000000
   26       66.200310   0.000000
   27       66.200317   0.000000
   28       68.530750   0.000000
 
  0.5555556E-01  0.5555556E-01  0.0000000E+00  0.1028807E-02
    1       -3.040873   1.000000
    2       20.043759   0.000000
    3       20.043760   0.000000
    4       20.288709   0.000000
    5       22.431561   0.000000
    6       23.866289   0.000000
    7       23.866289   0.000000
    8       26.154602   0.000000
    9       26.591386   0.000000
   10       28.039151   0.000000
   11       31.173996   0.000000
   12       33.671876   0.000000
   13       33.671876   0.000000
   14       35.155356   0.000000
   15       43.196554   0.000000
   16       59.375835   0.000000
   17       59.375848   0.000000
   18       60.964681   0.000000
   19       61.320202   0.000000
   20       61.837035   0.000000
   21       62.494604   0.000000
   22       62.822638   0.000000
   23       62.822910   0.000000
   24       65.098125   0.000000
   25       68.106388   0.000000
   26       68.106389   0.000000
   27       69.973306   0.000000
   28       75.160824   0.000000
 
  0.1111111E+00  0.5555556E-01  0.0000000E+00  0.4115226E-02
    1       -2.840223   1.000000
    2       18.066512   0.000000
    3       19.400922   0.000000
    4       20.364601   0.000000
    5       22.586402   0.000000
    6       24.281250   0.000000
    7       24.791026   0.000000
    8       25.329298   0.000000
    9       27.689301   0.000000
   10       27.714020   0.000000
   11       30.886151   0.000000
   12       34.445607   0.000000
   13       34.477049   0.000000
   14       36.557170   0.000000
   15       43.970686   0.000000
   16       57.144902   0.000000
   17       57.695464   0.000000
   18       60.125286   0.000000
   19       61.029949   0.000000
   20       61.121882   0.000000
   21       62.298562   0.000000
   22       62.951455   0.000000
   23       63.665266   0.000000
   24       64.898955   0.000000
   25       68.688348   0.000000
   26       70.376799   0.000000
   27       72.614063   0.000000
   28       73.675657   0.000000
 
  0.1666667E+00  0.5555556E-01  0.0000000E+00  0.4115226E-02
    1       -2.468365   1.000000
    2       15.811792   0.000000
    3       18.876948   0.000000
    4       20.132825   0.000000
    5       23.239724   0.000000
    6       24.197365   0.000000
    7       24.229557   0.000000
    8       25.636630   0.000000
    9       27.016718   0.000000
   10       29.824248   0.000000
   11       30.097252   0.000000
   12       36.098558   0.000000
   13       36.207639   0.000000
   14       38.299565   0.000000
   15       45.250983   0.000000
   16       54.118837   0.000000
   17       55.291039   0.000000
   18       58.495927   0.000000
   19       61.120666   0.000000
   20       61.131762   0.000000
   21       62.344026   0.000000
   22       63.040242   0.000000
   23       64.478919   0.000000
   24       64.867653   0.000000
   25       69.052005   0.000000
   26       71.336384   0.000000
   27       74.015462   0.000000
   28       74.743222   0.000000
 
  0.2222222E+00  0.5555556E-01  0.0000000E+00  0.4115226E-02
    1       -1.926749   1.000000
    2       13.592826  -0.000000
    3       18.486585   0.000000
    4       19.839968   0.000000
    5       22.590532   0.000000
    6       24.019527   0.000000
    7       24.854009   0.000000
    8       25.260326   0.000000
    9       27.581417   0.000000
   10       29.028097   0.000000
   11       32.099156   0.000000
   12       38.168866   0.000000
   13       38.479590   0.000000
   14       40.302174   0.000000
   15       46.887151   0.000000
   16       51.120560   0.000000
   17       52.605579   0.000000
   18       56.786477   0.000000
   19       61.222346   0.000000
   20       61.416248   0.000000
   21       62.461196   0.000000
   22       63.121216   0.000000
   23       64.774104   0.000000
   24       65.066503   0.000000
   25       69.442406   0.000000
   26       69.800495   0.000000
   27       72.628368   0.000000
   28       74.168755   0.000000
 
  0.2777778E+00  0.5555556E-01  0.0000000E+00  0.4115226E-02
    1       -1.217414   1.000000
    2       11.466429  -0.000000
    3       18.235162   0.000000
    4       19.627584   0.000000
    5       21.506491   0.000000
    6       23.908569   0.000000
    7       24.300431   0.000000
    8       26.152165   0.000000
    9       28.069239   0.000000
   10       28.895476   0.000000
   11       34.222778   0.000000
   12       40.409268   0.000000
   13       41.144291   0.000000
   14       42.434819   0.000000
   15       48.361883   0.000000
   16       48.740162   0.000000
   17       49.981117   0.000000
   18       55.106023   0.000000
   19       61.343181   0.000000
   20       61.791099   0.000000
   21       62.562405   0.000000
   22       63.189907   0.000000
   23       64.393334   0.000000
   24       65.055219   0.000000
   25       68.456394   0.000000
   26       69.720467   0.000000
   27       70.238295   0.000000
   28       72.293193   0.000000
 
  0.3333333E+00  0.5555556E-01  0.0000000E+00  0.4115226E-02
    1       -0.342957   1.000000
    2        9.456481  -0.000000
    3       18.125064   0.000000
    4       19.535082   0.000000
    5       20.522009   0.000000
    6       23.370326   0.000000
    7       23.888744   0.000000
    8       26.759825   0.000000
    9       28.036718   0.000000
   10       30.368913   0.000000
   11       36.266755   0.000000
   12       42.314364   0.000000
   13       44.000128   0.000000
   14       44.240663   0.000000
   15       46.346582   0.000000
   16       48.000453   0.000000
   17       50.439868   0.000000
   18       53.803232   0.000000
   19       61.450713   0.000000
   20       62.160908   0.000000
   21       62.238637   0.000000
   22       62.984771   0.000000
   23       63.160474   0.000000
   24       65.213752   0.000000
   25       66.520579   0.000000
   26       68.599514   0.000000
   27       68.886487   0.000000
   28       71.280778   0.000000
 
  0.3888889E+00  0.5555556E-01  0.0000000E+00  0.4115226E-02
    1        0.693422   1.000000
    2        7.576001   1.000018
    3       18.157625   0.000000
    4       19.529132   0.000000
    5       19.719893   0.000000
    6       22.548493   0.000000
    7       23.990947   0.000000
    8       26.018907   0.000000
    9       29.550843   0.000000
   10       31.856704   0.000000
   11       38.211651   0.000000
   12       41.976662   0.000000
   13       43.606877   0.000000
   14       46.855350   0.000000
   15       47.040291   0.000000
   16       48.757389   0.000000
   17       50.420471   0.000000
   18       54.594961   0.000000
   19       60.170390   0.000000
   20       61.365103   0.000000
   21       62.214276   0.000000
   22       62.214730   0.000000
   23       62.814914   0.000000
   24       64.013392   0.000000
   25       65.952692   0.000000
   26       66.469605   0.000000
   27       68.223435   0.000000
   28       71.657736   0.000000
 
  0.4444444E+00  0.5555556E-01  0.0000000E+00  0.4115226E-02
    1        1.887488   1.000000
    2        5.834001   1.000000
    3       18.333757   0.000000
    4       18.932437   0.000000
    5       19.792456   0.000000
    6       21.855968   0.000000
    7       24.228318   0.000000
    8       25.279428   0.000000
    9       31.189303   0.000000
   10       33.086545   0.000000
   11       39.927251   0.000000
   12       40.523100   0.000000
   13       41.723457   0.000000
   14       48.214168   0.000000
   15       49.513926   0.000000
   16       50.325937   0.000000
   17       51.230797   0.000000
   18       56.904798   0.000000
   19       58.000148   0.000000
   20       59.389204   0.000000
   21       60.444726   0.000000
   22       61.879162   0.000000
   23       62.852933   0.000000
   24       63.448309   0.000000
   25       65.507827   0.000000
   26       66.247127   0.000000
   27       66.767286   0.000000
   28       68.817077   0.000000
 
  0.5000000E+00  0.5555556E-01  0.0000000E+00  0.4115226E-02
    1        3.224992   1.000000
    2        4.246999   1.000000
    3       18.366659   0.000000
    4       18.654168   0.000000
    5       20.123862   0.000000
    6       21.300640   0.000000
    7       24.556515   0.000000
    8       24.708922   0.000000
    9       32.593247   0.000000
   10       33.414856   0.000000
   11       40.008447   0.000000
   12       40.088862   0.000000
   13       41.063181   0.000000
   14       47.516991   0.000000
   15       51.955780   0.000000
   16       52.096788   0.000000
   17       52.761238   0.000000
   18       56.583580   0.000000
   19       57.064268   0.000000
   20       57.977267   0.000000
   21       60.202513   0.000000
   22       61.629681   0.000000
   23       62.658736   0.000000
   24       62.952586   0.000000
   25       64.438951   0.000000
   26       65.282051   0.000000
   27       66.524994   0.000000
   28       68.222666   0.000000
 
 -0.4444444E+00  0.5555556E-01  0.0000000E+00  0.4115226E-02
    1        2.766720   1.000000
    2        4.755088   1.000000
    3       17.944138   0.000000
    4       19.119143   0.000000
    5       20.603229   0.000000
    6       20.885590   0.000000
    7       24.156751   0.000000
    8       25.145213   0.000000
    9       32.486070   0.000000
   10       33.118028   0.000000
   11       39.593740   0.000000
   12       40.860081   0.000000
   13       40.977113   0.000000
   14       47.676684   0.000000
   15       50.862017   0.000000
   16       51.749404   0.000000
   17       52.838796   0.000000
   18       56.989904   0.000000
   19       57.365957   0.000000
   20       58.583753   0.000000
   21       59.233878   0.000000
   22       61.777217   0.000000
   23       63.003697   0.000000
   24       63.195451   0.000000
   25       64.769485   0.000000
   26       65.090906   0.000000
   27       66.773421   0.000000
   28       68.313780   0.000000
 
 -0.3888889E+00  0.5555556E-01  0.0000000E+00  0.4115226E-02
    1        1.472320   1.000000
    2        6.398411   1.000000
    3       17.668055   0.000000
    4       19.728010   0.000000
    5       20.611950   0.000000
    6       21.225594   0.000000
    7       23.816861   0.000000
    8       25.798780   0.000000
    9       30.940121   0.000000
   10       32.376703   0.000000
   11       39.393882   0.000000
   12       40.695950   0.000000
   13       42.767354   0.000000
   14       47.993829   0.000000
   15       48.474595   0.000000
   16       50.015055   0.000000
   17       50.737865   0.000000
   18       56.062326   0.000000
   19       58.975035   0.000000
   20       59.678144   0.000000
   21       61.482955   0.000000
   22       61.851407   0.000000
   23       63.123651   0.000000
   24       63.423962   0.000000
   25       64.784902   0.000000
   26       66.594067   0.000000
   27       67.649822   0.000000
   28       69.599188   0.000000
 
 -0.3333333E+00  0.5555556E-01  0.0000000E+00  0.4115226E-02
    1        0.330217   1.000000
    2        8.187165   0.682909
    3       17.538957   0.000000
    4       20.439361   0.000000
    5       20.518689   0.000000
    6       21.984915   0.000000
    7       23.619403   0.000000
    8       26.565698   0.000000
    9       29.267013   0.000000
   10       31.013425   0.000000
   11       37.623349   0.000000
   12       42.096557   0.000000
   13       44.526556   0.000000
   14       45.958666   0.000000
   15       46.131007   0.000000
   16       48.614395   0.000000
   17       50.569084   0.000000
   18       53.894049   0.000000
   19       61.043900   0.000000
   20       61.535188   0.000000
   21       61.860958   0.000000
   22       63.306091   0.000000
   23       63.465888   0.000000
   24       64.105248   0.000000
   25       64.569008   0.000000
   26       67.866544   0.000000
   27       68.440131   0.000000
   28       71.350928   0.000000
 
 -0.2777778E+00  0.5555556E-01  0.0000000E+00  0.4115226E-02
    1       -0.652590   1.000000
    2       10.111082  -0.000000
    3       17.556661   0.000000
    4       20.477352   0.000000
    5       21.373965   0.000000
    6       22.865099   0.000000
    7       23.563720   0.000000
    8       27.370303   0.000000
    9       27.645622   0.000000
   10       29.587386   0.000000
   11       35.651192   0.000000
   12       41.512469   0.000000
   13       43.170248   0.000000
   14       44.087013   0.000000
   15       46.489057   0.000000
   16       48.979580   0.000000
   17       49.836439   0.000000
   18       53.988960   0.000000
   19       61.438056   0.000000
   20       61.739115   0.000000
   21       63.157309   0.000000
   22       63.302341   0.000000
   23       64.030589   0.000000
   24       64.058095   0.000000
   25       67.074756   0.000000
   26       68.872348   0.000000
   27       70.327973   0.000000
   28       70.729158   0.000000
 
 -0.2222222E+00  0.5555556E-01  0.0000000E+00  0.4115226E-02
    1       -1.472346   1.000000
    2       12.159623  -0.000000
    3       17.720659   0.000000
    4       20.613822   0.000000
    5       22.382730   0.000000
    6       23.547172   0.000000
    7       23.928235   0.000000
    8       26.156510   0.000000
    9       27.540225   0.000000
   10       28.925144   0.000000
   11       33.593205   0.000000
   12       39.217587   0.000000
   13       40.613848   0.000000
   14       41.925411   0.000000
   15       47.998344   0.000000
   16       48.853435   0.000000
   17       51.371654   0.000000
   18       55.483188   0.000000
   19       61.324218   0.000000
   20       61.538223   0.000000
   21       62.953556   0.000000
   22       63.776625   0.000000
   23       63.866164   0.000000
   24       64.797517   0.000000
   25       69.532286   0.000000
   26       69.708441   0.000000
   27       70.474361   0.000000
   28       72.768212   0.000000
 
 -0.1666667E+00  0.5555556E-01  0.0000000E+00  0.4115226E-02
    1       -2.126050   1.000000
    2       14.314737   0.000000
    3       18.031024   0.000000
    4       20.866564   0.000000
    5       23.402860   0.000000
    6       23.692592   0.000000
    7       24.932809   0.000000
    8       24.938565   0.000000
    9       26.498488   0.000000
   10       29.659012   0.000000
   11       31.465919   0.000000
   12       36.821460   0.000000
   13       38.409840   0.000000
   14       39.641518   0.000000
   15       46.220774   0.000000
   16       51.663646   0.000000
   17       54.156222   0.000000
   18       57.103252   0.000000
   19       61.204845   0.000000
   20       61.304190   0.000000
   21       62.756249   0.000000
   22       63.596777   0.000000
   23       63.765611   0.000000
   24       64.968979   0.000000
   25       69.568476   0.000000
   26       70.778821   0.000000
   27       72.657401   0.000000
   28       74.588969   0.000000
 
 -0.1111111E+00  0.5555556E-01  0.0000000E+00  0.4115226E-02
    1       -2.611266   1.000000
    2       16.532941   0.000000
    3       18.495409   0.000000
    4       21.178054   0.000000
    5       23.365675   0.000000
    6       23.794268   0.000000
    7       25.029763   0.000000
    8       25.104606   0.000000
    9       26.366922   0.000000
   10       29.254437   0.000000
   11       30.512180   0.000000
   12       34.826509   0.000000
   13       36.573069   0.000000
   14       37.501365   0.000000
   15       44.712057   0.000000
   16       54.615369   0.000000
   17       56.948646   0.000000
   18       58.624406   0.000000
   19       61.149787   0.000000
   20       61.223090   0.000000
   21       62.628810   0.000000
   22       63.533986   0.000000
   23       63.622329   0.000000
   24       64.378535   0.000000
   25       69.227312   0.000000
   26       72.285834   0.000000
   27       72.346278   0.000000
   28       74.657216   0.000000
 
 -0.5555556E-01  0.5555556E-01  0.0000000E+00  0.2057613E-02
    1       -2.926176   1.000000
    2       18.570297   0.000000
    3       19.261778   0.000000
    4       21.269053   0.000000
    5       22.839759   0.000000
    6       23.657974   0.000000
    7       24.128497   0.000000
    8       26.307112   0.000000
    9       27.243534   0.000000
   10       27.247243   0.000000
   11       30.856472   0.000000
   12       33.811482   0.000000
   13       35.126175   0.000000
   14       35.618922   0.000000
   15       43.609380   0.000000
   16       57.489683   0.000000
   17       59.095999   0.000000
   18       59.789739   0.000000
   19       61.326816   0.000000
   20       61.681403   0.000000
   21       62.741386   0.000000
   22       63.439267   0.000000
   23       63.487071   0.000000
   24       63.694576   0.000000
   25       68.992688   0.000000
   26       69.070275   0.000000
   27       71.685766   0.000000
   28       74.666527   0.000000
 
  0.1111111E+00  0.1111111E+00  0.0000000E+00  0.1028807E-02
    1       -2.697067   1.000000
    2       18.675537   0.000000
    3       18.675537   0.000000
    4       18.911729   0.000000
    5       21.755753   0.000000
    6       23.882927   0.000000
    7       25.716615   0.000000
    8       25.716615   0.000000
    9       28.220321   0.000000
   10       28.355199   0.000000
   11       31.894262   0.000000
   12       34.079545   0.000000
   13       34.079545   0.000000
   14       37.606935   0.000000
   15       44.674987   0.000000
   16       56.819280   0.000000
   17       56.819287   0.000000
   18       58.261225   0.000000
   19       60.431663   0.000000
   20       61.185474   0.000000
   21       62.571769   0.000000
   22       63.046946   0.000000
   23       63.047218   0.000000
   24       65.794477   0.000000
   25       70.436480   0.000000
   26       70.436487   0.000000
   27       72.242074   0.000000
   28       73.963275   0.000000
 
  0.1666667E+00  0.1111111E+00  0.0000000E+00  0.4115226E-02
    1       -2.382690   1.000000
    2       16.675498   0.000000
    3       18.086859   0.000000
    4       19.177819   0.000000
    5       21.775326   0.000000
    6       22.489767   0.000000
    7       26.161345   0.000000
    8       26.656703   0.000000
    9       28.202386   0.000000
   10       29.937290   0.000000
   11       31.644231   0.000000
   12       34.980070   0.000000
   13       35.285800   0.000000
   14       38.907291   0.000000
   15       45.949994   0.000000
   16       54.215942   0.000000
   17       55.114891   0.000000
   18       57.870549   0.000000
   19       60.109557   0.000000
   20       60.390537   0.000000
   21       62.384925   0.000000
   22       63.120296   0.000000
   23       63.928323   0.000000
   24       65.876678   0.000000
   25       70.271018   0.000000
   26       71.216508   0.000000
   27       72.686940   0.000000
   28       75.626418   0.000000
 
  0.2222222E+00  0.1111111E+00  0.0000000E+00  0.4115226E-02
    1       -1.898283   1.000000
    2       14.485873   0.000000
    3       17.639152   0.000000
    4       19.126880   0.000000
    5       21.096198   0.000000
    6       22.669203   0.000000
    7       26.149522   0.000000
    8       26.754482   0.000000
    9       28.479738   0.000000
   10       30.630755   0.000000
   11       32.197715   0.000000
   12       36.727517   0.000000
   13       37.495955   0.000000
   14       40.485049   0.000000
   15       47.614390   0.000000
   16       51.166388   0.000000
   17       52.898591   0.000000
   18       58.172626   0.000000
   19       58.732031   0.000000
   20       60.105839   0.000000
   21       62.450421   0.000000
   22       63.189319   0.000000
   23       64.671552   0.000000
   24       65.941144   0.000000
   25       68.586226   0.000000
   26       71.580884   0.000000
   27       73.208763   0.000000
   28       74.903444   0.000000
 
  0.2777778E+00  0.1111111E+00  0.0000000E+00  0.4115226E-02
    1       -1.245713   1.000000
    2       12.348661  -0.000000
    3       17.334087   0.000000
    4       18.948589   0.000000