Automatically generated mesh
     195
Reciprocal lattice
    0.00000000000000    0.00000000000000    0.00000000000000             1
    0.05555555555556    0.00000000000000    0.00000000000000             8
    0.11111111111111    0.00000000000000    0.00000000000000             8
    0.16666666666667    0.00000000000000    0.00000000000000             8
    0.22222222222222    0.00000000000000    0.00000000000000             8
    0.27777777777778    0.00000000000000    0.00000000000000             8
    0.33333333333333    0.00000000000000    0.00000000000000             8
    0.38888888888889    0.00000000000000    0.00000000000000             8
    0.44444444444444    0.00000000000000    0.00000000000000             8
    0.50000000000000    0.00000000000000    0.00000000000000             4
    0.05555555555556    0.05555555555556    0.00000000000000             6
    0.11111111111111    0.05555555555556    0.00000000000000            24
    0.16666666666667    0.05555555555556    0.00000000000000            24
    0.22222222222222    0.05555555555556    0.00000000000000            24
    0.27777777777778    0.05555555555556    0.00000000000000            24
    0.33333333333333    0.05555555555556    0.00000000000000            24
    0.38888888888889    0.05555555555556    0.00000000000000            24
    0.44444444444444    0.05555555555556    0.00000000000000            24
    0.50000000000000    0.05555555555556    0.00000000000000            24
   -0.44444444444444    0.05555555555556    0.00000000000000            24
   -0.38888888888889    0.05555555555556    0.00000000000000            24
   -0.33333333333333    0.05555555555556    0.00000000000000            24
   -0.27777777777778    0.05555555555556    0.00000000000000            24
   -0.22222222222222    0.05555555555556    0.00000000000000            24
   -0.16666666666667    0.05555555555556    0.00000000000000            24
   -0.11111111111111    0.05555555555556    0.00000000000000            24
   -0.05555555555556    0.05555555555556    0.00000000000000            12
    0.11111111111111    0.11111111111111    0.00000000000000             6
    0.16666666666667    0.11111111111111    0.00000000000000            24
    0.22222222222222    0.11111111111111    0.00000000000000            24
    0.27777777777778    0.11111111111111    0.00000000000000            24
    0.33333333333333    0.11111111111111    0.00000000000000            24
    0.38888888888889    0.11111111111111    0.00000000000000            24
    0.44444444444444    0.11111111111111    0.00000000000000            24
    0.50000000000000    0.11111111111111    0.00000000000000            24
   -0.44444444444444    0.11111111111111    0.00000000000000            24
   -0.38888888888889    0.11111111111111    0.00000000000000            24
   -0.33333333333333    0.11111111111111    0.00000000000000            24
   -0.27777777777778    0.11111111111111    0.00000000000000            24
   -0.22222222222222    0.11111111111111    0.00000000000000            24
   -0.16666666666667    0.11111111111111    0.00000000000000            24
   -0.11111111111111    0.11111111111111    0.00000000000000            12
    0.16666666666667    0.16666666666667    0.00000000000000             6
    0.22222222222222    0.16666666666667    0.00000000000000            24
    0.27777777777778    0.16666666666667    0.00000000000000            24
    0.33333333333333    0.16666666666667    0.00000000000000            24
    0.38888888888889    0.16666666666667    0.00000000000000            24
    0.44444444444444    0.16666666666667    0.00000000000000            24
    0.50000000000000    0.16666666666667    0.00000000000000            24
   -0.44444444444444    0.16666666666667    0.00000000000000            24
   -0.38888888888889    0.16666666666667    0.00000000000000            24
   -0.33333333333333    0.16666666666667    0.00000000000000            24
   -0.27777777777778    0.16666666666667    0.00000000000000            24
   -0.22222222222222    0.16666666666667    0.00000000000000            24
   -0.16666666666667    0.16666666666667    0.00000000000000            12
    0.22222222222222    0.22222222222222    0.00000000000000             6
    0.27777777777778    0.22222222222222    0.00000000000000            24
    0.33333333333333    0.22222222222222    0.00000000000000            24
    0.38888888888889    0.22222222222222    0.00000000000000            24
    0.44444444444444    0.22222222222222    0.00000000000000            24
    0.50000000000000    0.22222222222222    0.00000000000000            24
   -0.44444444444444    0.22222222222222    0.00000000000000            24
   -0.38888888888889    0.22222222222222    0.00000000000000            24
   -0.33333333333333    0.22222222222222    0.00000000000000            24
   -0.27777777777778    0.22222222222222    0.00000000000000            24
   -0.22222222222222    0.22222222222222    0.00000000000000            12
    0.27777777777778    0.27777777777778    0.00000000000000             6
    0.33333333333333    0.27777777777778    0.00000000000000            24
    0.38888888888889    0.27777777777778    0.00000000000000            24
    0.44444444444444    0.27777777777778    0.00000000000000            24
    0.50000000000000    0.27777777777778    0.00000000000000            24
   -0.44444444444444    0.27777777777778    0.00000000000000            24
   -0.38888888888889    0.27777777777778    0.00000000000000            24
   -0.33333333333333    0.27777777777778    0.00000000000000            24
   -0.27777777777778    0.27777777777778    0.00000000000000            12
    0.33333333333333    0.33333333333333    0.00000000000000             6
    0.38888888888889    0.33333333333333    0.00000000000000            24
    0.44444444444444    0.33333333333333    0.00000000000000            24
    0.50000000000000    0.33333333333333    0.00000000000000            24
   -0.44444444444444    0.33333333333333    0.00000000000000            24
   -0.38888888888889    0.33333333333333    0.00000000000000            24
   -0.33333333333333    0.33333333333333    0.00000000000000            12
    0.38888888888889    0.38888888888889    0.00000000000000             6
    0.44444444444444    0.38888888888889    0.00000000000000            24
    0.50000000000000    0.38888888888889    0.00000000000000            24
   -0.44444444444444    0.38888888888889    0.00000000000000            24
   -0.38888888888889    0.38888888888889    0.00000000000000            12
    0.44444444444444    0.44444444444444    0.00000000000000             6
    0.50000000000000    0.44444444444444    0.00000000000000            24
   -0.44444444444444    0.44444444444444    0.00000000000000            12
    0.50000000000000    0.50000000000000    0.00000000000000             3
    0.16666666666667    0.11111111111111    0.05555555555556            24
    0.22222222222222    0.11111111111111    0.05555555555556            48
    0.27777777777778    0.11111111111111    0.05555555555556            48
    0.33333333333333    0.11111111111111    0.05555555555556            48
    0.38888888888889    0.11111111111111    0.05555555555556            48
    0.44444444444444    0.11111111111111    0.05555555555556            48
    0.50000000000000    0.11111111111111    0.05555555555556            48
   -0.44444444444444    0.11111111111111    0.05555555555556            24
    0.22222222222222    0.16666666666667    0.05555555555556            24
    0.27777777777778    0.16666666666667    0.05555555555556            48
    0.33333333333333    0.16666666666667    0.05555555555556            48
    0.38888888888889    0.16666666666667    0.05555555555556            48
    0.44444444444444    0.16666666666667    0.05555555555556            48
    0.50000000000000    0.16666666666667    0.05555555555556            48
   -0.44444444444444    0.16666666666667    0.05555555555556            48
   -0.38888888888889    0.16666666666667    0.05555555555556            48
   -0.33333333333333    0.16666666666667    0.05555555555556            48
   -0.27777777777778    0.16666666666667    0.05555555555556            48
   -0.22222222222222    0.16666666666667    0.05555555555556            48
   -0.16666666666667    0.16666666666667    0.05555555555556            48
   -0.11111111111111    0.16666666666667    0.05555555555556            24
    0.27777777777778    0.22222222222222    0.05555555555556            24
    0.33333333333333    0.22222222222222    0.05555555555556            48
    0.38888888888889    0.22222222222222    0.05555555555556            48
    0.44444444444444    0.22222222222222    0.05555555555556            48
    0.50000000000000    0.22222222222222    0.05555555555556            48
   -0.44444444444444    0.22222222222222    0.05555555555556            48
   -0.38888888888889    0.22222222222222    0.05555555555556            48
   -0.33333333333333    0.22222222222222    0.05555555555556            48
   -0.27777777777778    0.22222222222222    0.05555555555556            48
   -0.22222222222222    0.22222222222222    0.05555555555556            48
   -0.16666666666667    0.22222222222222    0.05555555555556            24
    0.33333333333333    0.27777777777778    0.05555555555556            24
    0.38888888888889    0.27777777777778    0.05555555555556            48
    0.44444444444444    0.27777777777778    0.05555555555556            48
    0.50000000000000    0.27777777777778    0.05555555555556            48
   -0.44444444444444    0.27777777777778    0.05555555555556            48
   -0.38888888888889    0.27777777777778    0.05555555555556            48
   -0.33333333333333    0.27777777777778    0.05555555555556            48
   -0.27777777777778    0.27777777777778    0.05555555555556            48
   -0.22222222222222    0.27777777777778    0.05555555555556            24
    0.38888888888889    0.33333333333333    0.05555555555556            24
    0.44444444444444    0.33333333333333    0.05555555555556            48
    0.50000000000000    0.33333333333333    0.05555555555556            48
   -0.44444444444444    0.33333333333333    0.05555555555556            48
   -0.38888888888889    0.33333333333333    0.05555555555556            48
   -0.33333333333333    0.33333333333333    0.05555555555556            48
   -0.27777777777778    0.33333333333333    0.05555555555556            24
    0.44444444444444    0.38888888888889    0.05555555555556            24
    0.50000000000000    0.38888888888889    0.05555555555556            48
   -0.44444444444444    0.38888888888889    0.05555555555556            48
   -0.38888888888889    0.38888888888889    0.05555555555556            48
   -0.33333333333333    0.38888888888889    0.05555555555556            24
    0.50000000000000    0.44444444444444    0.05555555555556            24
   -0.44444444444444    0.44444444444444    0.05555555555556            48
   -0.38888888888889    0.44444444444444    0.05555555555556            24
   -0.44444444444444    0.50000000000000    0.05555555555556            12
    0.33333333333333    0.22222222222222    0.11111111111111            24
    0.38888888888889    0.22222222222222    0.11111111111111            48
    0.44444444444444    0.22222222222222    0.11111111111111            48
    0.50000000000000    0.22222222222222    0.11111111111111            48
   -0.44444444444444    0.22222222222222    0.11111111111111            48
   -0.38888888888889    0.22222222222222    0.11111111111111            24
    0.38888888888889    0.27777777777778    0.11111111111111            24
    0.44444444444444    0.27777777777778    0.11111111111111            48
    0.50000000000000    0.27777777777778    0.11111111111111            48
   -0.44444444444444    0.27777777777778    0.11111111111111            48
   -0.38888888888889    0.27777777777778    0.11111111111111            48
   -0.33333333333333    0.27777777777778    0.11111111111111            48
   -0.27777777777778    0.27777777777778    0.11111111111111            48
   -0.22222222222222    0.27777777777778    0.11111111111111            48
   -0.16666666666667    0.27777777777778    0.11111111111111            24
    0.44444444444444    0.33333333333333    0.11111111111111            24
    0.50000000000000    0.33333333333333    0.11111111111111            48
   -0.44444444444444    0.33333333333333    0.11111111111111            48
   -0.38888888888889    0.33333333333333    0.11111111111111            48
   -0.33333333333333    0.33333333333333    0.11111111111111            48
   -0.27777777777778    0.33333333333333    0.11111111111111            48
   -0.22222222222222    0.33333333333333    0.11111111111111            24
    0.50000000000000    0.38888888888889    0.11111111111111            24
   -0.44444444444444    0.38888888888889    0.11111111111111            48
   -0.38888888888889    0.38888888888889    0.11111111111111            48
   -0.33333333333333    0.38888888888889    0.11111111111111            48
   -0.27777777777778    0.38888888888889    0.11111111111111            24
   -0.44444444444444    0.44444444444444    0.11111111111111            24
   -0.38888888888889    0.44444444444444    0.11111111111111            48
   -0.33333333333333    0.44444444444444    0.11111111111111            24
   -0.38888888888889    0.50000000000000    0.11111111111111            12
    0.50000000000000    0.33333333333333    0.16666666666667            24
   -0.44444444444444    0.33333333333333    0.16666666666667            48
   -0.38888888888889    0.33333333333333    0.16666666666667            48
   -0.33333333333333    0.33333333333333    0.16666666666667            24
   -0.44444444444444    0.38888888888889    0.16666666666667            24
   -0.38888888888889    0.38888888888889    0.16666666666667            48
   -0.33333333333333    0.38888888888889    0.16666666666667            48
   -0.27777777777778    0.38888888888889    0.16666666666667            48
   -0.22222222222222    0.38888888888889    0.16666666666667            24
   -0.38888888888889    0.44444444444444    0.16666666666667            24
   -0.33333333333333    0.44444444444444    0.16666666666667            48
   -0.27777777777778    0.44444444444444    0.16666666666667            24
   -0.33333333333333    0.50000000000000    0.16666666666667            12
   -0.33333333333333    0.44444444444444    0.22222222222222            24
   -0.27777777777778    0.44444444444444    0.22222222222222            24
   -0.27777777777778    0.50000000000000    0.22222222222222            12
