unknown system                          
           1
     0.000000    2.016950    2.016950
     2.016950    0.000000    2.016950
     2.016950    2.016950    0.000000
   Al
   1
Direct configuration=     1
   0.00000000  0.00000000  0.00000000
unknown system                          
           1
     0.000000    1.988437    1.988437
     1.988437    0.000000    1.988437
     1.988437    1.988437    0.000000
   Al
   1
Direct configuration=     2
   0.00000000 -0.00000000 -0.00000000
unknown system                          
           1
     0.000000    1.992060    1.992060
     1.992060    0.000000    1.992060
     1.992060    1.992060    0.000000
   Al
   1
Direct configuration=     3
   0.00000000 -0.00000000 -0.00000000
