LAMMPS data file via write_data, version 29 Oct 2020, timestep = 0

25600 atoms
2 atom types
25344 bonds
2 bond types

-20.0 20.0 xlo xhi
-20.0 20.0 ylo yhi
-100.0 100.0 zlo zhi

Masses

1 1
2 1

Atoms # bond

17 17 2 -18.190384 -15.621812 -87.633184 0 0 0
90 90 2 -16.702015 -13.94361 -87.73335 0 0 0
91 91 2 -17.541155 -13.634764 -87.977413 0 0 0
92 92 2 -17.749042 -14.125632 -88.76036 0 0 0
93 93 2 -18.023111 -13.540392 -89.418655 0 0 0
94 94 2 -18.673426 -12.887526 -89.214384 0 0 0
95 95 2 -19.115414 -12.217617 -88.625198 0 0 0
96 96 2 -18.491837 -11.79092 -88.047254 0 0 0
97 97 2 -17.532559 -11.63388 -88.06565 0 0 0
98 98 2 -17.666181 -12.5855 -88.029738 0 0 0
119 19 2 -19.951222 -9.449145 -91.120154 1 0 0
170 70 2 -18.450802 -7.363838 -88.296857 1 0 0
171 71 2 -18.018187 -6.508012 -88.132289 1 0 0
172 72 2 -18.431127 -5.590378 -88.143778 1 0 0
173 73 2 -18.145527 -4.880112 -88.659218 1 0 0
174 74 2 -18.795962 -4.468688 -88.109418 1 0 0
201 1 1 -17.607511 -19.948261 -91.679504 0 0 0
202 2 2 -18.382177 -19.916371 -92.318656 0 0 0
203 3 2 -19.255184 -19.624707 -92.322264 0 0 0
213 13 2 -19.936305 -19.635029 -94.428049 0 0 0
266 66 2 -17.684532 -19.896476 -90.40515 0 0 0
294 94 2 -14.681361 -19.963321 -87.991593 0 0 0
312 12 2 -4.216909 -19.983798 -91.200161 0 1 0
314 14 2 -4.342849 -19.174411 -90.410752 0 1 0
315 15 2 -3.72852 -18.479125 -90.64285 0 1 0
316 16 2 -3.405994 -19.249076 -91.129038 0 1 0
317 17 2 -2.56739 -19.243914 -90.673349 0 1 0
318 18 2 -3.277177 -19.529775 -90.0675 0 1 0
319 19 2 -2.963826 -19.244957 -89.177 0 1 0
320 20 2 -2.377545 -19.269568 -88.508338 0 1 0
327 27 2 -1.933089 -19.04706 -87.612337 0 1 0
518 18 2 -18.354276 -3.167428 -87.819028 0 0 0
519 19 2 -18.478441 -3.544052 -88.658008 0 0 0
520 20 2 -18.974553 -3.22202 -89.369073 0 0 0
521 21 2 -18.501999 -2.44384 -89.096922 0 0 0
522 22 2 -18.100053 -2.198174 -88.202567 0 0 0
523 23 2 -17.276843 -1.613702 -88.216168 0 0 0
524 24 2 -18.010851 -1.074161 -88.388678 0 0 0
525 25 2 -18.227223 -0.318469 -88.006078 0 0 0
526 26 2 -17.257927 -0.455749 -87.846404 0 0 0
548 48 2 -19.595282 -2.05895 -89.322062 0 0 0
549 49 2 -19.123416 -2.358727 -90.105173 0 0 0
550 50 2 -18.411331 -1.765868 -90.244606 0 0 0
551 51 2 -18.109042 -2.285837 -91.022612 0 0 0
552 52 2 -18.750829 -2.952593 -90.893759 0 0 0
553 53 2 -18.229331 -3.188135 -91.662146 0 0 0
554 54 2 -17.590854 -3.229714 -90.950321 0 0 0
555 55 2 -16.94133 -2.486917 -90.858583 0 0 0
556 56 2 -17.291784 -2.708606 -89.905342 0 0 0
557 57 2 -17.38765 -2.078923 -89.237699 0 0 0
558 58 2 -17.278852 -1.741818 -90.119712 0 0 0
559 59 2 -17.388852 -1.466816 -91.047143 0 0 0
560 60 2 -17.77841 -0.735646 -90.483517 0 0 0
561 61 2 -16.820007 -0.811012 -90.277819 0 0 0
563 63 2 -15.889492 -0.709737 -90.77291 0 0 0
564 64 2 -16.36275 -1.485536 -91.149074 0 0 0
565 65 2 -16.76095 -0.628601 -91.375692 0 0 0
566 66 2 -17.658193 -0.434458 -91.552835 0 0 0
567 67 2 -18.151738 -1.065472 -92.127892 0 0 0
568 68 2 -18.617643 -0.19788 -92.232047 0 0 0
577 77 2 -15.308896 -0.514164 -89.996915 0 0 0
578 78 2 -16.043203 -0.754896 -89.493801 0 0 0
579 79 2 -15.671572 -1.564478 -89.656741 0 0 0
580 80 2 -15.761971 -2.204171 -90.354212 0 0 0
581 81 2 -15.959757 -2.750413 -89.635316 0 0 0
582 82 2 -14.985894 -2.622907 -89.811941 0 0 0
583 83 2 -14.452192 -2.968266 -90.55891 0 0 0
584 84 2 -13.832955 -3.269402 -91.217443 0 0 0
585 85 2 -12.88576 -2.917401 -91.083376 0 0 0
586 86 2 -12.994406 -3.548434 -91.778147 0 0 0
587 87 2 -12.816312 -4.541943 -91.838111 0 0 0
588 88 2 -12.411926 -5.119332 -92.503907 0 0 0
589 89 2 -11.54048 -5.44984 -92.384806 0 0 0
590 90 2 -11.106972 -5.806944 -91.58299 0 0 0
591 91 2 -10.568824 -6.099773 -90.820937 0 0 0
592 92 2 -9.947369 -6.710252 -90.609054 0 0 0
593 93 2 -9.13943 -7.106426 -90.914634 0 0 0
594 94 2 -9.021607 -8.037974 -91.050449 0 0 0
595 95 2 -8.386078 -7.478408 -91.674269 0 0 0
596 96 2 -8.197611 -6.688985 -91.045603 0 0 0
597 97 2 -7.48549 -7.327678 -91.156129 0 0 0
598 98 2 -6.778149 -7.635705 -91.845042 0 0 0
599 99 2 -5.8414 -7.388173 -91.99196 0 0 0
600 100 2 -5.481058 -6.558905 -91.854201 0 0 0
975 75 2 -11.854881 -19.579876 -89.06914 0 1 0
976 76 2 -10.985174 -19.302677 -89.197626 0 1 0
977 77 2 -10.953415 -18.537984 -89.695991 0 1 0
978 78 2 -10.174111 -18.692066 -89.256433 0 1 0
979 79 2 -9.984694 -19.358034 -89.899485 0 1 0
980 80 2 -9.997493 -19.226171 -90.89844 0 1 0
982 82 2 -8.977071 -19.984175 -89.740971 0 1 0
984 84 2 -9.529458 -19.529509 -88.581416 0 1 0
985 85 2 -9.271056 -19.429182 -87.599577 0 1 0
986 86 2 -9.824665 -18.689407 -87.799707 0 1 0
987 87 2 -10.477317 -19.273108 -88.112958 0 1 0
988 88 2 -11.186267 -19.866479 -88.276296 0 1 0
992 92 2 -13.477911 -19.90736 -88.253045 0 1 0
993 93 2 -13.739715 -18.997405 -88.039583 0 1 0
994 94 2 -14.307142 -18.942023 -88.803197 0 1 0
995 95 2 -14.75026 -18.50541 -87.999662 0 1 0
997 97 2 -15.62334 -19.010249 -87.811547 0 1 0
998 98 2 -16.390015 -18.48906 -87.581818 0 1 0
999 99 2 -16.557423 -19.192571 -88.2525 0 1 0
1000 100 2 -16.572439 -18.366639 -88.705411 0 1 0
1001 1 1 -12.715393 -11.407661 -95.505843 0 0 0
1002 2 2 -13.283239 -11.994687 -95.015297 0 0 0
1003 3 2 -12.412544 -12.058335 -94.674732 0 0 0
1004 4 2 -12.301094 -12.324594 -93.755279 0 0 0
1005 5 2 -12.400807 -11.829876 -92.966538 0 0 0
1006 6 2 -11.685286 -11.411199 -92.494886 0 0 0
1007 7 2 -11.360993 -10.500149 -92.620312 0 0 0
1008 8 2 -10.648175 -9.933959 -92.837718 0 0 0
1009 9 2 -10.685022 -10.019148 -91.887737 0 0 0
1010 10 2 -11.087613 -9.208302 -91.651428 0 0 0
1011 11 2 -10.329848 -8.661486 -91.645258 0 0 0
1012 12 2 -10.19062 -7.695061 -91.588675 0 0 0
1013 13 2 -11.058123 -8.047539 -91.799339 0 0 0
1014 14 2 -11.068817 -8.3926 -90.888567 0 0 0
1015 15 2 -11.650104 -8.079689 -90.219308 0 0 0
1016 16 2 -12.059222 -7.500122 -90.867806 0 0 0
1017 17 2 -12.928825 -7.783628 -91.169321 0 0 0
1018 18 2 -13.71455 -8.164635 -90.778419 0 0 0
1019 19 2 -14.479055 -8.130772 -91.308962 0 0 0
1020 20 2 -13.765136 -7.995007 -91.915295 0 0 0
1021 21 2 -14.331475 -7.230306 -91.861373 0 0 0
1022 22 2 -15.277101 -7.144726 -92.07286 0 0 0
1023 23 2 -15.514611 -8.022249 -91.867265 0 0 0
1024 24 2 -15.874062 -7.440785 -91.20472 0 0 0
1025 25 2 -16.388969 -8.291687 -91.513433 0 0 0
1026 26 2 -16.595231 -7.728816 -92.243852 0 0 0
1027 27 2 -17.276088 -7.498974 -91.630492 0 0 0
1028 28 2 -17.055165 -7.843799 -90.76551 0 0 0
1029 29 2 -16.660967 -6.944417 -90.860809 0 0 0
1030 30 2 -16.822847 -6.277357 -90.195045 0 0 0
1031 31 2 -17.22199 -5.351626 -90.348139 0 0 0
1032 32 2 -17.93638 -5.145187 -91.03565 0 0 0
1033 33 2 -18.280458 -5.720564 -91.703298 0 0 0
1034 34 2 -18.528331 -5.043283 -92.304542 0 0 0
1035 35 2 -17.556393 -5.130875 -92.169578 0 0 0
1036 36 2 -17.822907 -4.225867 -91.991141 0 0 0
1037 37 2 -17.635569 -3.416963 -92.522571 0 0 0
1038 38 2 -18.519202 -3.71836 -92.602923 0 0 0
1039 39 2 -19.209239 -3.067648 -92.575143 0 0 0
1040 40 2 -19.40026 -2.865024 -91.677122 0 0 0
1041 41 2 -18.820682 -2.083936 -91.866311 0 0 0
1042 42 2 -18.442409 -2.456701 -92.625229 0 0 0
1043 43 2 -18.265334 -2.587922 -93.610613 0 0 0
1044 44 2 -19.186791 -2.715038 -93.870557 0 0 0
1045 45 2 -18.807237 -3.552745 -93.536934 0 0 0
1046 46 2 -18.16101 -4.154744 -93.827947 0 0 0
1047 47 2 -17.783391 -4.598283 -93.035061 0 0 0
1048 48 2 -17.178447 -4.191339 -93.609459 0 0 0
1049 49 2 -16.792262 -3.861726 -94.411843 0 0 0
1050 50 2 -15.914181 -4.246695 -94.245248 0 0 0
1051 51 2 -15.893025 -3.980866 -95.187577 0 0 0
1052 52 2 -16.609655 -4.59014 -95.150711 0 0 0
1053 53 2 -17.433051 -4.774559 -94.512149 0 0 0
1054 54 2 -16.564324 -5.171339 -94.423225 0 0 0
1055 55 2 -17.136781 -5.639521 -93.833904 0 0 0
1056 56 2 -17.666806 -5.748578 -94.645985 0 0 0
1057 57 2 -17.237264 -5.441248 -95.400993 0 0 0
1058 58 2 -17.528164 -4.58957 -95.728332 0 0 0
1059 59 2 -16.944822 -4.026124 -96.283685 0 0 0
1060 60 2 -16.152455 -4.192176 -96.766692 0 0 0
1061 61 2 -15.301882 -3.777482 -96.395291 0 0 0
1062 62 2 -14.458662 -3.396071 -96.45067 0 0 0
1063 63 2 -13.789839 -3.025314 -97.013796 0 0 0
1064 64 2 -13.038023 -3.278865 -97.463395 0 0 0
1065 65 2 -12.55393 -4.096644 -97.444993 0 0 0
1066 66 2 -13.111315 -4.516035 -98.106327 0 0 0
1067 67 2 -14.110323 -4.446289 -98.156558 0 0 0
1068 68 2 -14.257407 -3.577859 -97.733177 0 0 0
1069 69 2 -15.058041 -3.17355 -97.227613 0 0 0
1070 70 2 -14.68834 -2.404416 -96.772785 0 0 0
1071 71 2 -14.355794 -2.454476 -97.765538 0 0 0
1072 72 2 -13.597616 -2.317679 -98.372307 0 0 0
1073 73 2 -13.337296 -2.558235 -99.24412 0 0 0
1074 74 2 -13.819277 -3.236554 -98.742098 0 0 0
1075 75 2 -14.766982 -3.302473 -98.734618 0 0 0
1076 76 2 -15.344831 -3.730676 -98.082013 0 0 0
1077 77 2 -16.186456 -4.001386 -97.740497 0 0 0
1078 78 2 -16.934134 -4.44808 -97.305684 0 0 0
1079 79 2 -17.8592 -4.440831 -97.803541 0 0 0
1080 80 2 -17.785523 -4.643309 -96.825316 0 0 0
1081 81 2 -17.72314 -5.463255 -96.406564 0 0 0
1082 82 2 -16.84294 -5.038497 -96.477179 0 0 0
1083 83 2 -16.681458 -5.48233 -97.303396 0 0 0
1084 84 2 -15.885323 -5.587916 -96.779498 0 0 0
1085 85 2 -15.817847 -4.883939 -97.361263 0 0 0
1086 86 2 -15.072441 -4.258211 -97.278286 0 0 0
1087 87 2 -14.190694 -4.357299 -96.841263 0 0 0
1088 88 2 -14.95261 -4.872472 -96.462718 0 0 0
1089 89 2 -14.831084 -5.809014 -96.567659 0 0 0
1090 90 2 -15.458202 -6.53077 -96.411477 0 0 0
1091 91 2 -15.310857 -6.404254 -97.400047 0 0 0
1092 92 2 -15.833155 -5.852002 -97.890745 0 0 0
1093 93 2 -16.694207 -6.102951 -98.123107 0 0 0
1094 94 2 -16.223427 -6.903955 -97.926454 0 0 0
1095 95 2 -16.324774 -6.534205 -97.021225 0 0 0
1096 96 2 -16.304029 -7.092499 -96.140427 0 0 0
1097 97 2 -16.667407 -7.791657 -96.708335 0 0 0
1098 98 2 -17.008663 -8.204408 -95.92193 0 0 0
1099 99 2 -16.623367 -8.78047 -96.525177 0 0 0
1100 100 2 -16.355257 -9.597642 -96.821263 0 0 0
1101 1 1 -9.903196 -15.434048 -97.372203 0 0 0
1102 2 2 -10.219151 -14.52058 -97.152898 0 0 0
1103 3 2 -9.637785 -14.895572 -96.516825 0 0 0
1104 4 2 -9.713893 -15.600552 -95.854456 0 0 0
1105 5 2 -9.746653 -16.187952 -96.591988 0 0 0
1106 6 2 -8.89238 -15.833894 -96.419829 0 0 0
1107 7 2 -8.76121 -15.322372 -97.246398 0 0 0
1108 8 2 -9.058689 -16.118268 -97.672824 0 0 0
1109 9 2 -8.893576 -16.663021 -98.493906 0 0 0
1110 10 2 -9.490585 -17.033119 -99.12356 0 0 0
1111 11 2 -10.267429 -17.532435 -99.264227 0 0 0
1112 12 2 -10.653256 -18.134027 -98.627701 0 0 0
1113 13 2 -9.873167 -18.498145 -99.013351 0 0 0
1114 14 2 -9.315164 -19.117905 -98.515773 0 0 0
1115 15 2 -8.614081 -18.540012 -98.878313 0 0 0
1116 16 2 -7.72283 -18.264205 -99.204608 0 0 0
1117 17 2 -7.462631 -18.934752 -98.653858 0 0 0
1118 18 2 -7.790029 -19.773478 -98.229846 0 0 0
1119 19 2 -7.731048 -19.65755 -99.1863 0 0 0
1124 24 2 -6.674293 -19.897183 -97.214987 0 0 0
1125 25 2 -6.761322 -19.545703 -98.115736 0 0 0
1126 26 2 -6.257501 -18.778932 -97.800545 0 0 0
1127 27 2 -6.527042 -18.261036 -96.961169 0 0 0
1128 28 2 -7.003364 -17.506209 -97.225751 0 0 0
1129 29 2 -7.75551 -17.927353 -96.785859 0 0 0
1130 30 2 -8.151638 -18.836259 -96.87613 0 0 0
1131 31 2 -8.208813 -18.858677 -97.779057 0 0 0
1132 32 2 -9.10152 -18.545092 -97.581817 0 0 0
1133 33 2 -8.511679 -17.760511 -97.58243 0 0 0
1134 34 2 -9.179414 -17.810946 -98.282201 0 0 0
1135 35 2 -10.021907 -17.420518 -98.197333 0 0 0
1136 36 2 -10.540415 -17.913097 -97.535601 0 0 0
1137 37 2 -10.195872 -18.741035 -97.77362 0 0 0
1138 38 2 -10.175678 -19.097812 -96.893308 0 0 0
1139 39 2 -9.263435 -19.219837 -96.630005 0 0 0
1140 40 2 -9.060976 -19.692778 -97.427251 0 0 0
1150 50 2 -9.801172 -19.913447 -96.072983 0 0 0
1182 82 2 -12.51814 -19.280537 -96.192046 0 0 0
1183 83 2 -11.783928 -18.945007 -95.72902 0 0 0
1184 84 2 -11.684403 -19.947087 -95.784728 0 0 0
1185 85 2 -10.861395 -19.503057 -95.536501 0 0 0
1186 86 2 -10.733634 -19.749536 -94.608598 0 0 0
1187 87 2 -9.838115 -19.578976 -94.41557 0 0 0
1188 88 2 -8.852038 -19.867044 -94.310649 0 0 0
1190 90 2 -8.623392 -19.782048 -96.114314 0 0 0
1191 91 2 -8.678426 -18.866978 -95.817291 0 0 0
1192 92 2 -7.739751 -19.170143 -95.790295 0 0 0
1193 93 2 -6.899848 -19.284916 -95.368245 0 0 0
1194 94 2 -6.0585 -19.387577 -94.871716 0 0 0
1195 95 2 -5.446926 -18.660297 -94.589063 0 0 0
1196 96 2 -6.460272 -18.531197 -94.509603 0 0 0
1197 97 2 -6.022936 -18.10238 -95.278186 0 0 0
1198 98 2 -6.446187 -17.153888 -95.501705 0 0 0
1199 99 2 -7.00155 -17.812033 -95.138483 0 0 0
1200 100 2 -6.963874 -18.191913 -95.994494 0 0 0
1228 28 2 -0.237344 -5.56249 -92.631339 0 0 0
1230 30 2 -0.131882 -4.455055 -93.003096 0 0 0
1231 31 2 -0.929588 -4.756902 -92.667119 0 0 0
1232 32 2 -1.644034 -5.301277 -92.990579 0 0 0
1233 33 2 -1.868801 -4.666908 -93.623185 0 0 0
1234 34 2 -2.135961 -3.730685 -93.725949 0 0 0
1235 35 2 -1.601389 -3.000918 -93.699941 0 0 0
1236 36 2 -1.363475 -3.580723 -94.458685 0 0 0
1237 37 2 -1.331763 -4.426873 -94.919441 0 0 0
1238 38 2 -2.310489 -4.237671 -94.755013 0 0 0
1239 39 2 -2.934484 -4.715969 -94.20308 0 0 0
1240 40 2 -2.791402 -4.458639 -93.325275 0 0 0
1241 41 2 -3.025495 -3.621073 -92.860248 0 0 0
1242 42 2 -3.471663 -2.780193 -92.641436 0 0 0
1243 43 2 -2.743027 -2.271379 -92.312949 0 0 0
1244 44 2 -2.744523 -1.506004 -91.764101 0 0 0
1245 45 2 -3.336159 -0.706567 -91.59343 0 0 0
1246 46 2 -2.852324 -0.837486 -90.816367 0 0 0
1303 3 2 -14.521849 -19.880118 -97.95834 0 1 0
1304 4 2 -14.138192 -19.990326 -97.066839 0 1 0
1352 52 2 -17.043181 -19.742359 -99.244011 0 1 0
1353 53 2 -16.196119 -19.321248 -98.986066 0 1 0
1355 55 2 -15.484359 -19.583609 -98.303613 0 1 0
1356 56 2 -15.186607 -18.691808 -98.432656 0 1 0
1357 57 2 -15.903745 -18.057467 -98.449135 0 1 0
1358 58 2 -15.882406 -17.118157 -98.65817 0 1 0
1359 59 2 -15.374213 -16.31507 -98.442295 0 1 0
1360 60 2 -14.856877 -15.62219 -98.925478 0 1 0
1361 61 2 -15.648133 -15.138552 -98.926494 0 1 0
1362 62 2 -16.021626 -14.362833 -98.438018 0 1 0
1363 63 2 -15.131135 -13.964756 -98.467607 0 1 0
1364 64 2 -15.673478 -13.747997 -97.717188 0 1 0
1365 65 2 -16.41831 -13.872192 -97.135821 0 1 0
1366 66 2 -15.668504 -14.355267 -96.784164 0 1 0
1367 67 2 -16.27725 -14.977011 -97.280543 0 1 0
1368 68 2 -15.704769 -15.437625 -96.613718 0 1 0
1369 69 2 -16.054871 -16.332456 -96.625393 0 1 0
1370 70 2 -16.531405 -17.006396 -96.097072 0 1 0
1371 71 2 -17.233977 -17.391005 -95.668946 0 1 0
1372 72 2 -16.463931 -17.826053 -95.265883 0 1 0
1373 73 2 -16.580937 -17.735787 -94.239065 0 1 0
1374 74 2 -17.001322 -18.635357 -94.306029 0 1 0
1375 75 2 -16.013347 -18.659296 -94.468274 0 1 0
1376 76 2 -15.512605 -18.517463 -93.711888 0 1 0
1377 77 2 -14.653258 -18.167251 -94.053465 0 1 0
1378 78 2 -14.048622 -18.362926 -93.31805 0 1 0
1379 79 2 -13.460884 -18.004594 -94.045423 0 1 0
1380 80 2 -13.088959 -17.237183 -93.429862 0 1 0
1381 81 2 -13.508233 -16.700686 -94.110412 0 1 0
1382 82 2 -13.676291 -17.260835 -94.807611 0 1 0
1383 83 2 -14.239408 -17.505894 -95.529165 0 1 0
1384 84 2 -13.348985 -17.656387 -95.966098 0 1 0
1385 85 2 -13.524125 -18.013687 -96.900017 0 1 0
1386 86 2 -13.32435 -18.898651 -96.639235 0 1 0
1387 87 2 -13.938921 -18.940257 -97.353506 0 1 0
1388 88 2 -13.390858 -18.597444 -98.113513 0 1 0
1389 89 2 -14.124922 -18.821335 -98.632246 0 1 0
1390 90 2 -13.327207 -18.461521 -99.130075 0 1 0
1391 91 2 -12.596559 -17.830969 -99.069083 0 1 0
1392 92 2 -11.682784 -17.811199 -98.720918 0 1 0
1393 93 2 -11.107178 -17.186583 -98.240105 0 1 0
1394 94 2 -11.040596 -16.25402 -97.908666 0 1 0
1395 95 2 -11.008926 -15.315372 -97.56294 0 1 0
1396 96 2 -10.898161 -14.486078 -98.038534 0 1 0
1397 97 2 -10.654852 -14.458018 -98.975705 0 1 0
1398 98 2 -10.984835 -15.335069 -98.726451 0 1 0
1399 99 2 -10.562084 -16.199076 -98.821241 0 1 0
1400 100 2 -9.916887 -16.418284 -98.169316 0 1 0
1589 89 2 -0.392728 -14.728329 -95.68701 0 1 0
1590 90 2 -1.165062 -14.328174 -95.260306 0 1 0
1591 91 2 -1.251692 -15.243124 -95.531114 0 1 0
1592 92 2 -0.86991 -15.954833 -94.978049 0 1 0
1593 93 2 -1.826611 -15.997689 -95.019181 0 1 0
1594 94 2 -2.673768 -15.580347 -94.744507 0 1 0
1595 95 2 -2.764667 -16.517359 -94.948806 0 1 0
1596 96 2 -2.974483 -17.45568 -95.028207 0 1 0
1597 97 2 -3.043336 -17.727742 -95.952392 0 1 0
1598 98 2 -3.139465 -18.141742 -96.836447 0 1 0
1599 99 2 -3.415075 -19.048916 -97.107151 0 1 0
1600 100 2 -3.569817 -19.684312 -97.793649 0 1 0
1601 1 1 -0.968122 -8.618049 -96.982871 0 0 0
1602 2 2 -0.166402 -8.056428 -96.964057 0 0 0
1603 3 2 -0.555555 -7.180114 -96.552862 0 0 0
1604 4 2 -0.177811 -7.401037 -95.73972 0 0 0
1701 1 1 -7.295405 -14.521898 -94.224473 0 0 0
1702 2 2 -7.66192 -13.615202 -94.462854 0 0 0
1703 3 2 -7.800262 -13.673572 -95.396157 0 0 0
1704 4 2 -8.494371 -13.575387 -96.002704 0 0 0
1705 5 2 -9.222131 -14.002758 -95.532662 0 0 0
1706 6 2 -9.855707 -14.686398 -95.319709 0 0 0
1707 7 2 -10.519548 -14.26145 -95.995264 0 0 0
1708 8 2 -11.393536 -13.918688 -96.236909 0 0 0
1709 9 2 -11.722012 -14.397178 -95.488375 0 0 0
1710 10 2 -11.774549 -13.421553 -95.408583 0 0 0
1711 11 2 -10.885428 -13.216178 -95.587822 0 0 0
1712 12 2 -9.956454 -13.228725 -95.70776 0 0 0
1713 13 2 -9.75063 -13.74466 -96.492175 0 0 0
1714 14 2 -8.945172 -14.180018 -96.873228 0 0 0
1715 15 2 -9.140602 -13.813972 -97.786292 0 0 0
1716 16 2 -8.214062 -13.870105 -97.616273 0 0 0
1717 17 2 -8.278958 -14.672817 -98.107939 0 0 0
1718 18 2 -8.599926 -14.847509 -99.044883 0 0 0
1719 19 2 -8.692271 -15.781535 -98.999432 0 0 0
1720 20 2 -9.483711 -15.490289 -98.562329 0 0 0
1721 21 2 -9.805301 -14.591463 -98.235578 0 0 0
1722 22 2 -10.208424 -13.769334 -98.234103 0 0 0
1723 23 2 -10.143418 -13.637737 -99.26756 0 0 0
1724 24 2 -9.395749 -14.209255 -99.076751 0 0 0
1725 25 2 -8.565272 -13.855615 -98.77987 0 0 0
1726 26 2 -8.487932 -12.931697 -98.897308 0 0 0
1727 27 2 -8.739253 -12.158376 -98.519094 0 0 0
1728 28 2 -9.660004 -12.636036 -98.514594 0 0 0
1729 29 2 -10.433514 -12.149005 -98.198248 0 0 0
1730 30 2 -10.238686 -11.197453 -98.020867 0 0 0
1731 31 2 -9.441067 -11.352653 -98.517034 0 0 0
1732 32 2 -9.403076 -10.466104 -98.055309 0 0 0
1733 33 2 -9.886038 -9.600717 -98.167774 0 0 0
1734 34 2 -8.939831 -9.47342 -98.13902 0 0 0
1735 35 2 -8.651986 -8.580603 -98.336727 0 0 0
1736 36 2 -7.973011 -8.482075 -99.005692 0 0 0
1737 37 2 -8.196704 -7.607982 -98.765505 0 0 0
1738 38 2 -8.377912 -7.206315 -97.935558 0 0 0
1739 39 2 -9.17309 -7.47584 -98.364957 0 0 0
1740 40 2 -9.595846 -6.693568 -98.87763 0 0 0
1741 41 2 -10.405688 -7.128611 -98.65694 0 0 0
1742 42 2 -11.213711 -7.614594 -98.84469 0 0 0
1743 43 2 -11.415306 -7.112853 -98.031188 0 0 0
1744 44 2 -12.133331 -7.47167 -97.523781 0 0 0
1745 45 2 -12.338393 -8.354821 -97.510769 0 0 0
1746 46 2 -12.972578 -8.92237 -97.156145 0 0 0
1747 47 2 -12.733269 -9.866164 -97.483126 0 0 0
1748 48 2 -11.950687 -9.323569 -97.626828 0 0 0
1749 49 2 -11.62723 -8.928368 -96.891774 0 0 0
1750 50 2 -11.811947 -9.033608 -95.973877 0 0 0
1751 51 2 -12.376698 -8.312743 -96.262365 0 0 0
1752 52 2 -11.856373 -7.458388 -96.316907 0 0 0
1753 53 2 -11.009587 -7.029386 -96.384431 0 0 0
1754 54 2 -11.062685 -6.335744 -97.000288 0 0 0
1755 55 2 -11.469697 -5.741155 -96.434051 0 0 0
1756 56 2 -11.988988 -5.171191 -95.871399 0 0 0
1757 57 2 -12.391432 -5.913487 -95.395093 0 0 0
1758 58 2 -11.795284 -5.368966 -94.883818 0 0 0
1759 59 2 -11.185055 -6.013622 -95.336703 0 0 0
1760 60 2 -10.379618 -6.299912 -94.946484 0 0 0
1761 61 2 -9.445466 -6.409442 -94.726423 0 0 0
1762 62 2 -8.762077 -5.902317 -95.257314 0 0 0
1763 63 2 -8.910021 -5.034919 -95.696203 0 0 0
1764 64 2 -8.974943 -5.788404 -96.368334 0 0 0
1765 65 2 -8.268732 -6.383405 -96.62126 0 0 0
1766 66 2 -7.56721 -5.823722 -96.639669 0 0 0
1767 67 2 -7.55828 -6.242751 -97.539727 0 0 0
1768 68 2 -7.658398 -7.075958 -97.108092 0 0 0
1769 69 2 -7.476953 -6.803265 -96.208834 0 0 0
1770 70 2 -8.05174 -6.609296 -95.514917 0 0 0
1771 71 2 -7.825344 -6.600091 -94.598137 0 0 0
1772 72 2 -7.833994 -5.675117 -94.44633 0 0 0
1773 73 2 -7.651571 -5.419178 -93.547702 0 0 0
1774 74 2 -7.242182 -5.953794 -92.858133 0 0 0
1775 75 2 -7.79274 -6.522967 -93.429436 0 0 0
1776 76 2 -7.266319 -7.116564 -92.824716 0 0 0
1777 77 2 -6.933996 -7.982046 -92.96247 0 0 0
1778 78 2 -6.168137 -8.20939 -92.430742 0 0 0
1779 79 2 -6.03065 -8.441486 -91.467897 0 0 0
1780 80 2 -6.676485 -7.923258 -90.886311 0 0 0
1781 81 2 -7.028804 -8.651435 -91.455157 0 0 0
1782 82 2 -7.650017 -8.053339 -92.025623 0 0 0
1783 83 2 -8.278274 -8.71129 -92.020859 0 0 0
1784 84 2 -8.989657 -9.357281 -91.794751 0 0 0
1785 85 2 -8.286877 -9.814045 -92.266572 0 0 0
1786 86 2 -8.028311 -9.284298 -93.038556 0 0 0
1787 87 2 -7.297248 -9.905597 -93.265505 0 0 0
1788 88 2 -7.672468 -10.537532 -92.686459 0 0 0
1789 89 2 -7.25313 -11.483778 -92.631143 0 0 0
1790 90 2 -8.110247 -11.47339 -93.152474 0 0 0
1791 91 2 -8.77986 -10.918926 -93.602247 0 0 0
1792 92 2 -8.377053 -10.108961 -93.432923 0 0 0
1793 93 2 -9.340073 -9.914035 -93.715211 0 0 0
1794 94 2 -8.776969 -9.154462 -93.801298 0 0 0
1795 95 2 -8.512294 -8.602505 -94.543975 0 0 0
1796 96 2 -7.867185 -8.915386 -95.175333 0 0 0
1797 97 2 -7.69936 -9.360695 -95.989399 0 0 0
1798 98 2 -8.00978 -8.602385 -96.519224 0 0 0
1799 99 2 -8.209097 -8.971133 -97.341543 0 0 0
1800 100 2 -7.673176 -9.474041 -98.053601 0 0 0
2246 46 2 -15.059254 -3.658886 -87.538291 1 0 0
2247 47 2 -14.787583 -3.714836 -88.436439 1 0 0
2248 48 2 -14.590467 -2.9305 -88.987572 1 0 0
2249 49 2 -13.80703 -2.917367 -89.710893 1 0 0
2250 50 2 -13.461035 -2.968243 -88.856238 1 0 0
2251 51 2 -12.909995 -3.248222 -88.165793 1 0 0
2287 87 2 -10.95978 -6.39862 -87.848272 1 0 0
2288 88 2 -11.65171 -6.501946 -88.573402 1 0 0
2289 89 2 -11.944769 -7.26288 -88.063775 1 0 0
2290 90 2 -12.786071 -7.107474 -88.468228 1 0 0
2291 91 2 -12.749624 -6.242136 -88.809925 1 0 0
2292 92 2 -13.543038 -6.279762 -88.37859 1 0 0
2293 93 2 -14.063347 -6.143895 -87.617849 1 0 0
2333 33 2 -19.19006 -5.815679 -91.305079 1 0 0
2334 34 2 -18.42903 -5.880563 -90.704108 1 0 0
2335 35 2 -17.540874 -6.207161 -91.018411 1 0 0
2336 36 2 -17.892639 -6.909424 -90.392198 1 0 0
2337 37 2 -18.254397 -7.65466 -90.967145 1 0 0
2338 38 2 -17.861482 -7.879852 -90.146322 1 0 0
2339 39 2 -18.219293 -7.406609 -89.35045 1 0 0
2340 40 2 -17.528237 -6.771686 -89.34051 1 0 0
2341 41 2 -18.234814 -6.108516 -89.325565 1 0 0
2342 42 2 -17.453246 -5.686921 -88.838987 1 0 0
2343 43 2 -16.947888 -4.995642 -89.333447 1 0 0
2344 44 2 -16.494146 -5.857384 -89.400691 1 0 0
2345 45 2 -16.239202 -6.76456 -89.470897 1 0 0
2346 46 2 -15.526438 -6.272119 -89.885053 1 0 0
2347 47 2 -15.652248 -6.362976 -90.828981 1 0 0
2348 48 2 -15.138761 -5.567747 -90.526507 1 0 0
2349 49 2 -16.119742 -5.485238 -90.452189 1 0 0
2350 50 2 -16.519615 -4.601598 -90.267075 1 0 0
2351 51 2 -17.087068 -4.001241 -89.829722 1 0 0
2352 52 2 -17.554734 -4.28482 -90.690488 1 0 0
2353 53 2 -16.796763 -4.423035 -91.268474 1 0 0
2354 54 2 -15.849614 -4.209923 -91.16371 1 0 0
2355 55 2 -15.789526 -4.083729 -92.109881 1 0 0
2356 56 2 -15.677106 -4.448076 -93.05869 1 0 0
2357 57 2 -16.582913 -4.505262 -92.760095 1 0 0
2358 58 2 -16.655937 -3.610102 -92.931743 1 0 0
2359 59 2 -17.119492 -2.98695 -93.502008 1 0 0
2360 60 2 -17.289919 -2.173476 -94.003214 1 0 0
2361 61 2 -17.806877 -1.376684 -94.174389 1 0 0
2362 62 2 -18.160124 -0.512516 -94.674104 1 0 0
2363 63 2 -17.229145 -0.228365 -94.340138 1 0 0
2364 64 2 -16.357655 -0.008732 -94.100179 1 0 0
2365 65 2 -16.227044 -0.978285 -94.192631 1 0 0
2366 66 2 -16.919939 -0.735082 -93.427921 1 0 0
2367 67 2 -17.769098 -1.069266 -93.106056 1 0 0
2368 68 2 -17.506521 -1.99647 -92.984003 1 0 0
2369 69 2 -17.504624 -2.341614 -92.087377 1 0 0
2370 70 2 -17.154272 -1.422078 -92.155093 1 0 0
2371 71 2 -16.577196 -1.556971 -92.85633 1 0 0
2372 72 2 -15.954734 -1.702684 -93.539846 1 0 0
2373 73 2 -15.289402 -1.035274 -93.56121 1 0 0
2374 74 2 -15.661822 -0.933473 -92.679633 1 0 0
2375 75 2 -15.347852 -1.076604 -91.772431 1 0 0
2376 76 2 -15.220311 -1.488568 -90.946539 1 0 0
2377 77 2 -14.641479 -0.745658 -91.086085 1 0 0
2378 78 2 -14.266423 -1.09287 -91.887657 1 0 0
2379 79 2 -14.617449 -1.416708 -92.771418 1 0 0
2380 80 2 -13.711657 -1.405094 -93.051282 1 0 0
2381 81 2 -14.017171 -0.728963 -93.664302 1 0 0
2382 82 2 -13.74301 -0.276712 -92.8708 1 0 0
2383 83 2 -12.890783 -0.705443 -92.930267 1 0 0
2384 84 2 -12.992159 -0.422751 -93.832166 1 0 0
2385 85 2 -12.101283 -0.375424 -94.405379 1 0 0
2388 88 2 -13.15483 -0.403735 -95.149342 1 0 0
2391 91 2 -14.317018 -0.149362 -96.25374 1 0 0
2392 92 2 -14.230504 -0.374764 -95.307037 1 0 0
2400 100 2 -17.905413 -0.100582 -93.483286 1 0 0
2401 1 1 -10.563788 -7.357761 -95.308966 0 0 0
2402 2 2 -10.791583 -7.527348 -94.348493 0 0 0
2403 3 2 -11.23166 -7.304961 -93.509638 0 0 0
2404 4 2 -11.393151 -7.029721 -92.615682 0 0 0
2405 5 2 -12.052776 -7.737839 -92.770141 0 0 0
2406 6 2 -12.665785 -7.380046 -92.167517 0 0 0
2407 7 2 -13.356518 -6.851006 -91.717113 0 0 0
2408 8 2 -13.622691 -6.996616 -92.578612 0 0 0
2409 9 2 -12.974956 -6.789812 -93.25999 0 0 0
2410 10 2 -12.167435 -6.842646 -93.586573 0 0 0
2411 11 2 -12.086423 -6.484246 -94.440312 0 0 0
2412 12 2 -12.056884 -6.92977 -95.25496 0 0 0
2413 13 2 -11.503667 -7.723128 -95.146782 0 0 0
2414 14 2 -11.803403 -8.628821 -95.051927 0 0 0
2415 15 2 -11.428417 -9.511832 -94.774491 0 0 0
2416 16 2 -11.011071 -10.322683 -94.49941 0 0 0
2417 17 2 -10.094093 -9.911512 -94.661806 0 0 0
2418 18 2 -10.450118 -9.510227 -93.908316 0 0 0
2419 19 2 -10.448448 -8.959333 -93.118511 0 0 0
2420 20 2 -10.281119 -8.205411 -92.60429 0 0 0
2421 21 2 -10.406156 -7.893904 -93.501157 0 0 0
2422 22 2 -11.184641 -8.306806 -93.233753 0 0 0
2423 23 2 -11.479611 -9.026961 -92.611085 0 0 0
2424 24 2 -12.310078 -9.60624 -92.810502 0 0 0
2425 25 2 -13.030895 -9.687963 -93.400371 0 0 0
2426 26 2 -13.81738 -10.224508 -93.511641 0 0 0
2427 27 2 -14.460451 -9.482902 -93.493646 0 0 0
2428 28 2 -14.804473 -10.220831 -93.002599 0 0 0
2429 29 2 -15.436654 -10.251814 -93.678389 0 0 0
2430 30 2 -15.774363 -10.976892 -93.158777 0 0 0
2431 31 2 -16.462406 -10.376554 -93.28765 0 0 0
2432 32 2 -17.232441 -10.851387 -93.37541 0 0 0
2433 33 2 -17.488607 -11.061288 -92.457193 0 0 0
2434 34 2 -18.218969 -11.583018 -92.197956 0 0 0
2435 35 2 -18.921843 -11.33541 -91.629344 0 0 0
2436 36 2 -19.526742 -12.060746 -91.743597 0 0 0
2437 37 2 -18.667169 -12.272455 -91.493286 0 0 0
2438 38 2 -17.847729 -12.619477 -91.782511 0 0 0
2439 39 2 -17.30293 -13.37653 -91.912913 0 0 0
2440 40 2 -17.201633 -14.263134 -91.702739 0 0 0
2441 41 2 -17.730809 -14.457142 -90.852773 0 0 0
2442 42 2 -18.584862 -14.435627 -91.389254 0 0 0
2443 43 2 -18.093467 -14.949211 -92.083612 0 0 0
2444 44 2 -19.009267 -15.048487 -92.115336 0 0 0
2445 45 2 -18.799936 -15.88341 -92.435836 0 0 0
2446 46 2 -17.887282 -16.102606 -92.34222 0 0 0
2447 47 2 -17.879054 -15.620523 -93.121154 0 0 0
2448 48 2 -17.455408 -16.290857 -93.63505 0 0 0
2449 49 2 -18.179617 -16.31244 -94.224957 0 0 0
2450 50 2 -18.762606 -16.096056 -93.521285 0 0 0
2451 51 2 -19.508504 -15.608179 -93.036167 0 0 0
2452 52 2 -19.928932 -16.43052 -93.194008 0 0 0
2453 53 2 -19.695996 -16.612082 -92.231047 0 0 0
2454 54 2 -19.0938 -16.331093 -91.54501 0 0 0
2455 55 2 -18.533035 -17.05363 -91.368253 0 0 0
2456 56 2 -18.033485 -17.725749 -90.861575 0 0 0
2457 57 2 -17.290163 -17.703494 -91.497073 0 0 0
2458 58 2 -17.320143 -17.1513 -92.306249 0 0 0
2459 59 2 -17.501614 -16.564333 -91.560028 0 0 0
2460 60 2 -16.605185 -16.314536 -91.745608 0 0 0
2461 61 2 -16.019097 -15.79733 -91.142556 0 0 0
2462 62 2 -15.277046 -15.476157 -91.619376 0 0 0
2463 63 2 -15.279568 -14.48701 -91.791549 0 0 0
2464 64 2 -15.649636 -14.278853 -90.901478 0 0 0
2465 65 2 -15.507077 -13.611456 -90.188112 0 0 0
2466 66 2 -15.985464 -12.95479 -90.677796 0 0 0
2467 67 2 -15.45275 -12.555422 -89.996238 0 0 0
2468 68 2 -14.719623 -12.916736 -90.49076 0 0 0
2469 69 2 -15.25131 -13.313399 -91.245548 0 0 0
2470 70 2 -15.054568 -13.23761 -92.165632 0 0 0
2471 71 2 -15.619316 -13.914731 -92.644084 0 0 0
2472 72 2 -15.642798 -14.811813 -93.031604 0 0 0
2473 73 2 -15.719041 -14.726736 -94.046458 0 0 0
2474 74 2 -16.216865 -15.482711 -93.708197 0 0 0
2475 75 2 -16.954504 -15.290544 -93.171418 0 0 0
2476 76 2 -16.789034 -16.148115 -92.732311 0 0 0
2477 77 2 -16.20064 -16.886622 -92.63169 0 0 0
2478 78 2 -16.333201 -17.433762 -91.916254 0 0 0
2479 79 2 -15.413156 -17.242206 -91.78956 0 0 0
2480 80 2 -16.031534 -16.972318 -91.099468 0 0 0
2481 81 2 -15.466361 -17.210036 -90.356461 0 0 0
2482 82 2 -15.060416 -16.556559 -90.859264 0 0 0
2483 83 2 -14.904071 -15.631665 -90.713178 0 0 0
2484 84 2 -14.212065 -16.173476 -90.413663 0 0 0
2485 85 2 -13.699479 -15.998279 -89.607893 0 0 0
2486 86 2 -13.199033 -15.21091 -89.722476 0 0 0
2487 87 2 -12.362212 -14.655442 -89.697683 0 0 0
2488 88 2 -11.962733 -14.186936 -90.471919 0 0 0
2489 89 2 -11.156546 -14.699016 -90.303896 0 0 0
2490 90 2 -10.561126 -15.439371 -90.411032 0 0 0
2491 91 2 -10.103746 -16.043582 -90.942863 0 0 0
2492 92 2 -9.184296 -16.300759 -90.942929 0 0 0
2493 93 2 -9.070909 -15.509862 -90.446137 0 0 0
2494 94 2 -9.630004 -15.829493 -89.761707 0 0 0
2495 95 2 -9.327524 -15.447616 -88.874519 0 0 0
2496 96 2 -8.65728 -15.231808 -89.519911 0 0 0
2497 97 2 -8.697089 -16.188881 -89.356633 0 0 0
2498 98 2 -9.300344 -16.604937 -88.82924 0 0 0
2499 99 2 -9.689159 -17.096967 -89.538116 0 0 0
2500 100 2 -9.900165 -17.972654 -89.878436 0 0 0
2668 68 2 -0.714857 -19.661014 -94.508781 0 0 0
2669 69 2 -1.426787 -19.848807 -95.128464 0 0 0
2670 70 2 -1.129206 -19.089211 -95.68923 0 0 0
2671 71 2 -0.24534 -19.340395 -95.40987 0 0 0
2672 72 2 -0.547522 -18.676459 -94.807636 0 0 0
2677 77 2 -0.065182 -17.475105 -95.556906 0 0 0
2678 78 2 -0.680675 -16.872396 -95.201216 0 0 0
2679 79 2 -0.404134 -17.159723 -94.351952 0 0 0
2682 82 2 -0.181424 -16.579829 -92.830585 0 0 0
2685 85 2 -0.007599 -15.089539 -90.639407 0 0 0
2686 86 2 -0.815293 -14.625088 -90.341646 0 0 0
2687 87 2 -1.304034 -14.456319 -91.1462 0 0 0
2688 88 2 -0.881227 -13.679412 -91.655146 0 0 0