LAMMPS Description

     672  atoms
     624  bonds
     816  angles
     480  dihedrals
     
     2  atom types
     2  bond types
     2  angle types
     2  dihedral types

  0 100.0 xlo xhi
  0 100.0 ylo yhi
  0 100.0 zlo zhi

Masses

1 13.0  # CA
2 50.0  # R

Atoms  # full

1 1 1 0.0 0.0 1.0 0.0
2 1 2 0.0 0.0 4.4 0.0
3 1 1 0.0 3.2 -1.0 1.22464679915e-16
4 1 2 0.0 3.2 -4.4 5.38844591625e-16
5 1 1 0.0 6.4 1.0 0.0
6 1 2 0.0 6.4 4.4 0.0
7 1 1 0.0 9.6 -1.0 1.22464679915e-16
8 1 2 0.0 9.6 -4.4 5.38844591625e-16
9 1 1 0.0 12.8 1.0 0.0
10 1 2 0.0 12.8 4.4 0.0
11 1 1 0.0 16.0 -1.0 1.22464679915e-16
12 1 2 0.0 16.0 -4.4 5.38844591625e-16
13 1 1 0.0 19.2 1.0 0.0
14 1 2 0.0 19.2 4.4 0.0
15 2 1 0.0 30.0 1.0 0.0
16 2 2 0.0 30.0 4.4 0.0
17 2 1 0.0 33.2 -1.0 1.22464679915e-16
18 2 2 0.0 33.2 -4.4 5.38844591625e-16
19 2 1 0.0 36.4 1.0 0.0
20 2 2 0.0 36.4 4.4 0.0
21 2 1 0.0 39.6 -1.0 1.22464679915e-16
22 2 2 0.0 39.6 -4.4 5.38844591625e-16
23 2 1 0.0 42.8 1.0 0.0
24 2 2 0.0 42.8 4.4 0.0
25 2 1 0.0 46.0 -1.0 1.22464679915e-16
26 2 2 0.0 46.0 -4.4 5.38844591625e-16
27 2 1 0.0 49.2 1.0 0.0
28 2 2 0.0 49.2 4.4 0.0
29 3 1 0.0 60.0 1.0 0.0
30 3 2 0.0 60.0 4.4 0.0
31 3 1 0.0 63.2 -1.0 1.22464679915e-16
32 3 2 0.0 63.2 -4.4 5.38844591625e-16
33 3 1 0.0 66.4 1.0 0.0
34 3 2 0.0 66.4 4.4 0.0
35 3 1 0.0 69.6 -1.0 1.22464679915e-16
36 3 2 0.0 69.6 -4.4 5.38844591625e-16
37 3 1 0.0 72.8 1.0 0.0
38 3 2 0.0 72.8 4.4 0.0
39 3 1 0.0 76.0 -1.0 1.22464679915e-16
40 3 2 0.0 76.0 -4.4 5.38844591625e-16
41 3 1 0.0 79.2 1.0 0.0
42 3 2 0.0 79.2 4.4 0.0
43 4 1 0.0 0.0 26.0 0.0
44 4 2 0.0 0.0 29.4 0.0
45 4 1 0.0 3.2 24.0 1.22464679915e-16
46 4 2 0.0 3.2 20.6 5.38844591625e-16
47 4 1 0.0 6.4 26.0 0.0
48 4 2 0.0 6.4 29.4 0.0
49 4 1 0.0 9.6 24.0 1.22464679915e-16
50 4 2 0.0 9.6 20.6 5.38844591625e-16
51 4 1 0.0 12.8 26.0 0.0
52 4 2 0.0 12.8 29.4 0.0
53 4 1 0.0 16.0 24.0 1.22464679915e-16
54 4 2 0.0 16.0 20.6 5.38844591625e-16
55 4 1 0.0 19.2 26.0 0.0
56 4 2 0.0 19.2 29.4 0.0
57 5 1 0.0 30.0 26.0 0.0
58 5 2 0.0 30.0 29.4 0.0
59 5 1 0.0 33.2 24.0 1.22464679915e-16
60 5 2 0.0 33.2 20.6 5.38844591625e-16
61 5 1 0.0 36.4 26.0 0.0
62 5 2 0.0 36.4 29.4 0.0
63 5 1 0.0 39.6 24.0 1.22464679915e-16
64 5 2 0.0 39.6 20.6 5.38844591625e-16
65 5 1 0.0 42.8 26.0 0.0
66 5 2 0.0 42.8 29.4 0.0
67 5 1 0.0 46.0 24.0 1.22464679915e-16
68 5 2 0.0 46.0 20.6 5.38844591625e-16
69 5 1 0.0 49.2 26.0 0.0
70 5 2 0.0 49.2 29.4 0.0
71 6 1 0.0 60.0 26.0 0.0
72 6 2 0.0 60.0 29.4 0.0
73 6 1 0.0 63.2 24.0 1.22464679915e-16
74 6 2 0.0 63.2 20.6 5.38844591625e-16
75 6 1 0.0 66.4 26.0 0.0
76 6 2 0.0 66.4 29.4 0.0
77 6 1 0.0 69.6 24.0 1.22464679915e-16
78 6 2 0.0 69.6 20.6 5.38844591625e-16
79 6 1 0.0 72.8 26.0 0.0
80 6 2 0.0 72.8 29.4 0.0
81 6 1 0.0 76.0 24.0 1.22464679915e-16
82 6 2 0.0 76.0 20.6 5.38844591625e-16
83 6 1 0.0 79.2 26.0 0.0
84 6 2 0.0 79.2 29.4 0.0
85 7 1 0.0 0.0 51.0 0.0
86 7 2 0.0 0.0 54.4 0.0
87 7 1 0.0 3.2 49.0 1.22464679915e-16
88 7 2 0.0 3.2 45.6 5.38844591625e-16
89 7 1 0.0 6.4 51.0 0.0
90 7 2 0.0 6.4 54.4 0.0
91 7 1 0.0 9.6 49.0 1.22464679915e-16
92 7 2 0.0 9.6 45.6 5.38844591625e-16
93 7 1 0.0 12.8 51.0 0.0
94 7 2 0.0 12.8 54.4 0.0
95 7 1 0.0 16.0 49.0 1.22464679915e-16
96 7 2 0.0 16.0 45.6 5.38844591625e-16
97 7 1 0.0 19.2 51.0 0.0
98 7 2 0.0 19.2 54.4 0.0
99 8 1 0.0 30.0 51.0 0.0
100 8 2 0.0 30.0 54.4 0.0
101 8 1 0.0 33.2 49.0 1.22464679915e-16
102 8 2 0.0 33.2 45.6 5.38844591625e-16
103 8 1 0.0 36.4 51.0 0.0
104 8 2 0.0 36.4 54.4 0.0
105 8 1 0.0 39.6 49.0 1.22464679915e-16
106 8 2 0.0 39.6 45.6 5.38844591625e-16
107 8 1 0.0 42.8 51.0 0.0
108 8 2 0.0 42.8 54.4 0.0
109 8 1 0.0 46.0 49.0 1.22464679915e-16
110 8 2 0.0 46.0 45.6 5.38844591625e-16
111 8 1 0.0 49.2 51.0 0.0
112 8 2 0.0 49.2 54.4 0.0
113 9 1 0.0 60.0 51.0 0.0
114 9 2 0.0 60.0 54.4 0.0
115 9 1 0.0 63.2 49.0 1.22464679915e-16
116 9 2 0.0 63.2 45.6 5.38844591625e-16
117 9 1 0.0 66.4 51.0 0.0
118 9 2 0.0 66.4 54.4 0.0
119 9 1 0.0 69.6 49.0 1.22464679915e-16
120 9 2 0.0 69.6 45.6 5.38844591625e-16
121 9 1 0.0 72.8 51.0 0.0
122 9 2 0.0 72.8 54.4 0.0
123 9 1 0.0 76.0 49.0 1.22464679915e-16
124 9 2 0.0 76.0 45.6 5.38844591625e-16
125 9 1 0.0 79.2 51.0 0.0
126 9 2 0.0 79.2 54.4 0.0
127 10 1 0.0 0.0 76.0 0.0
128 10 2 0.0 0.0 79.4 0.0
129 10 1 0.0 3.2 74.0 1.22464679915e-16
130 10 2 0.0 3.2 70.6 5.38844591625e-16
131 10 1 0.0 6.4 76.0 0.0
132 10 2 0.0 6.4 79.4 0.0
133 10 1 0.0 9.6 74.0 1.22464679915e-16
134 10 2 0.0 9.6 70.6 5.38844591625e-16
135 10 1 0.0 12.8 76.0 0.0
136 10 2 0.0 12.8 79.4 0.0
137 10 1 0.0 16.0 74.0 1.22464679915e-16
138 10 2 0.0 16.0 70.6 5.38844591625e-16
139 10 1 0.0 19.2 76.0 0.0
140 10 2 0.0 19.2 79.4 0.0
141 11 1 0.0 30.0 76.0 0.0
142 11 2 0.0 30.0 79.4 0.0
143 11 1 0.0 33.2 74.0 1.22464679915e-16
144 11 2 0.0 33.2 70.6 5.38844591625e-16
145 11 1 0.0 36.4 76.0 0.0
146 11 2 0.0 36.4 79.4 0.0
147 11 1 0.0 39.6 74.0 1.22464679915e-16
148 11 2 0.0 39.6 70.6 5.38844591625e-16
149 11 1 0.0 42.8 76.0 0.0
150 11 2 0.0 42.8 79.4 0.0
151 11 1 0.0 46.0 74.0 1.22464679915e-16
152 11 2 0.0 46.0 70.6 5.38844591625e-16
153 11 1 0.0 49.2 76.0 0.0
154 11 2 0.0 49.2 79.4 0.0
155 12 1 0.0 60.0 76.0 0.0
156 12 2 0.0 60.0 79.4 0.0
157 12 1 0.0 63.2 74.0 1.22464679915e-16
158 12 2 0.0 63.2 70.6 5.38844591625e-16
159 12 1 0.0 66.4 76.0 0.0
160 12 2 0.0 66.4 79.4 0.0
161 12 1 0.0 69.6 74.0 1.22464679915e-16
162 12 2 0.0 69.6 70.6 5.38844591625e-16
163 12 1 0.0 72.8 76.0 0.0
164 12 2 0.0 72.8 79.4 0.0
165 12 1 0.0 76.0 74.0 1.22464679915e-16
166 12 2 0.0 76.0 70.6 5.38844591625e-16
167 12 1 0.0 79.2 76.0 0.0
168 12 2 0.0 79.2 79.4 0.0
169 13 1 0.0 0.0 1.0 25.0
170 13 2 0.0 0.0 4.4 25.0
171 13 1 0.0 3.2 -1.0 25.0
172 13 2 0.0 3.2 -4.4 25.0
173 13 1 0.0 6.4 1.0 25.0
174 13 2 0.0 6.4 4.4 25.0
175 13 1 0.0 9.6 -1.0 25.0
176 13 2 0.0 9.6 -4.4 25.0
177 13 1 0.0 12.8 1.0 25.0
178 13 2 0.0 12.8 4.4 25.0
179 13 1 0.0 16.0 -1.0 25.0
180 13 2 0.0 16.0 -4.4 25.0
181 13 1 0.0 19.2 1.0 25.0
182 13 2 0.0 19.2 4.4 25.0
183 14 1 0.0 30.0 1.0 25.0
184 14 2 0.0 30.0 4.4 25.0
185 14 1 0.0 33.2 -1.0 25.0
186 14 2 0.0 33.2 -4.4 25.0
187 14 1 0.0 36.4 1.0 25.0
188 14 2 0.0 36.4 4.4 25.0
189 14 1 0.0 39.6 -1.0 25.0
190 14 2 0.0 39.6 -4.4 25.0
191 14 1 0.0 42.8 1.0 25.0
192 14 2 0.0 42.8 4.4 25.0
193 14 1 0.0 46.0 -1.0 25.0
194 14 2 0.0 46.0 -4.4 25.0
195 14 1 0.0 49.2 1.0 25.0
196 14 2 0.0 49.2 4.4 25.0
197 15 1 0.0 60.0 1.0 25.0
198 15 2 0.0 60.0 4.4 25.0
199 15 1 0.0 63.2 -1.0 25.0
200 15 2 0.0 63.2 -4.4 25.0
201 15 1 0.0 66.4 1.0 25.0
202 15 2 0.0 66.4 4.4 25.0
203 15 1 0.0 69.6 -1.0 25.0
204 15 2 0.0 69.6 -4.4 25.0
205 15 1 0.0 72.8 1.0 25.0
206 15 2 0.0 72.8 4.4 25.0
207 15 1 0.0 76.0 -1.0 25.0
208 15 2 0.0 76.0 -4.4 25.0
209 15 1 0.0 79.2 1.0 25.0
210 15 2 0.0 79.2 4.4 25.0
211 16 1 0.0 0.0 26.0 25.0
212 16 2 0.0 0.0 29.4 25.0
213 16 1 0.0 3.2 24.0 25.0
214 16 2 0.0 3.2 20.6 25.0
215 16 1 0.0 6.4 26.0 25.0
216 16 2 0.0 6.4 29.4 25.0
217 16 1 0.0 9.6 24.0 25.0
218 16 2 0.0 9.6 20.6 25.0
219 16 1 0.0 12.8 26.0 25.0
220 16 2 0.0 12.8 29.4 25.0
221 16 1 0.0 16.0 24.0 25.0
222 16 2 0.0 16.0 20.6 25.0
223 16 1 0.0 19.2 26.0 25.0
224 16 2 0.0 19.2 29.4 25.0
225 17 1 0.0 30.0 26.0 25.0
226 17 2 0.0 30.0 29.4 25.0
227 17 1 0.0 33.2 24.0 25.0
228 17 2 0.0 33.2 20.6 25.0
229 17 1 0.0 36.4 26.0 25.0
230 17 2 0.0 36.4 29.4 25.0
231 17 1 0.0 39.6 24.0 25.0
232 17 2 0.0 39.6 20.6 25.0
233 17 1 0.0 42.8 26.0 25.0
234 17 2 0.0 42.8 29.4 25.0
235 17 1 0.0 46.0 24.0 25.0
236 17 2 0.0 46.0 20.6 25.0
237 17 1 0.0 49.2 26.0 25.0
238 17 2 0.0 49.2 29.4 25.0
239 18 1 0.0 60.0 26.0 25.0
240 18 2 0.0 60.0 29.4 25.0
241 18 1 0.0 63.2 24.0 25.0
242 18 2 0.0 63.2 20.6 25.0
243 18 1 0.0 66.4 26.0 25.0
244 18 2 0.0 66.4 29.4 25.0
245 18 1 0.0 69.6 24.0 25.0
246 18 2 0.0 69.6 20.6 25.0
247 18 1 0.0 72.8 26.0 25.0
248 18 2 0.0 72.8 29.4 25.0
249 18 1 0.0 76.0 24.0 25.0
250 18 2 0.0 76.0 20.6 25.0
251 18 1 0.0 79.2 26.0 25.0
252 18 2 0.0 79.2 29.4 25.0
253 19 1 0.0 0.0 51.0 25.0
254 19 2 0.0 0.0 54.4 25.0
255 19 1 0.0 3.2 49.0 25.0
256 19 2 0.0 3.2 45.6 25.0
257 19 1 0.0 6.4 51.0 25.0
258 19 2 0.0 6.4 54.4 25.0
259 19 1 0.0 9.6 49.0 25.0
260 19 2 0.0 9.6 45.6 25.0
261 19 1 0.0 12.8 51.0 25.0
262 19 2 0.0 12.8 54.4 25.0
263 19 1 0.0 16.0 49.0 25.0
264 19 2 0.0 16.0 45.6 25.0
265 19 1 0.0 19.2 51.0 25.0
266 19 2 0.0 19.2 54.4 25.0
267 20 1 0.0 30.0 51.0 25.0
268 20 2 0.0 30.0 54.4 25.0
269 20 1 0.0 33.2 49.0 25.0
270 20 2 0.0 33.2 45.6 25.0
271 20 1 0.0 36.4 51.0 25.0
272 20 2 0.0 36.4 54.4 25.0
273 20 1 0.0 39.6 49.0 25.0
274 20 2 0.0 39.6 45.6 25.0
275 20 1 0.0 42.8 51.0 25.0
276 20 2 0.0 42.8 54.4 25.0
277 20 1 0.0 46.0 49.0 25.0
278 20 2 0.0 46.0 45.6 25.0
279 20 1 0.0 49.2 51.0 25.0
280 20 2 0.0 49.2 54.4 25.0
281 21 1 0.0 60.0 51.0 25.0
282 21 2 0.0 60.0 54.4 25.0
283 21 1 0.0 63.2 49.0 25.0
284 21 2 0.0 63.2 45.6 25.0
285 21 1 0.0 66.4 51.0 25.0
286 21 2 0.0 66.4 54.4 25.0
287 21 1 0.0 69.6 49.0 25.0
288 21 2 0.0 69.6 45.6 25.0
289 21 1 0.0 72.8 51.0 25.0
290 21 2 0.0 72.8 54.4 25.0
291 21 1 0.0 76.0 49.0 25.0
292 21 2 0.0 76.0 45.6 25.0
293 21 1 0.0 79.2 51.0 25.0
294 21 2 0.0 79.2 54.4 25.0
295 22 1 0.0 0.0 76.0 25.0
296 22 2 0.0 0.0 79.4 25.0
297 22 1 0.0 3.2 74.0 25.0
298 22 2 0.0 3.2 70.6 25.0
299 22 1 0.0 6.4 76.0 25.0
300 22 2 0.0 6.4 79.4 25.0
301 22 1 0.0 9.6 74.0 25.0
302 22 2 0.0 9.6 70.6 25.0
303 22 1 0.0 12.8 76.0 25.0
304 22 2 0.0 12.8 79.4 25.0
305 22 1 0.0 16.0 74.0 25.0
306 22 2 0.0 16.0 70.6 25.0
307 22 1 0.0 19.2 76.0 25.0
308 22 2 0.0 19.2 79.4 25.0
309 23 1 0.0 30.0 76.0 25.0
310 23 2 0.0 30.0 79.4 25.0
311 23 1 0.0 33.2 74.0 25.0
312 23 2 0.0 33.2 70.6 25.0
313 23 1 0.0 36.4 76.0 25.0
314 23 2 0.0 36.4 79.4 25.0
315 23 1 0.0 39.6 74.0 25.0
316 23 2 0.0 39.6 70.6 25.0
317 23 1 0.0 42.8 76.0 25.0
318 23 2 0.0 42.8 79.4 25.0
319 23 1 0.0 46.0 74.0 25.0
320 23 2 0.0 46.0 70.6 25.0
321 23 1 0.0 49.2 76.0 25.0
322 23 2 0.0 49.2 79.4 25.0
323 24 1 0.0 60.0 76.0 25.0
324 24 2 0.0 60.0 79.4 25.0
325 24 1 0.0 63.2 74.0 25.0
326 24 2 0.0 63.2 70.6 25.0
327 24 1 0.0 66.4 76.0 25.0
328 24 2 0.0 66.4 79.4 25.0
329 24 1 0.0 69.6 74.0 25.0
330 24 2 0.0 69.6 70.6 25.0
331 24 1 0.0 72.8 76.0 25.0
332 24 2 0.0 72.8 79.4 25.0
333 24 1 0.0 76.0 74.0 25.0
334 24 2 0.0 76.0 70.6 25.0
335 24 1 0.0 79.2 76.0 25.0
336 24 2 0.0 79.2 79.4 25.0
337 25 1 0.0 0.0 1.0 50.0
338 25 2 0.0 0.0 4.4 50.0
339 25 1 0.0 3.2 -1.0 50.0
340 25 2 0.0 3.2 -4.4 50.0
341 25 1 0.0 6.4 1.0 50.0
342 25 2 0.0 6.4 4.4 50.0
343 25 1 0.0 9.6 -1.0 50.0
344 25 2 0.0 9.6 -4.4 50.0
345 25 1 0.0 12.8 1.0 50.0
346 25 2 0.0 12.8 4.4 50.0
347 25 1 0.0 16.0 -1.0 50.0
348 25 2 0.0 16.0 -4.4 50.0
349 25 1 0.0 19.2 1.0 50.0
350 25 2 0.0 19.2 4.4 50.0
351 26 1 0.0 30.0 1.0 50.0
352 26 2 0.0 30.0 4.4 50.0
353 26 1 0.0 33.2 -1.0 50.0
354 26 2 0.0 33.2 -4.4 50.0
355 26 1 0.0 36.4 1.0 50.0
356 26 2 0.0 36.4 4.4 50.0
357 26 1 0.0 39.6 -1.0 50.0
358 26 2 0.0 39.6 -4.4 50.0
359 26 1 0.0 42.8 1.0 50.0
360 26 2 0.0 42.8 4.4 50.0
361 26 1 0.0 46.0 -1.0 50.0
362 26 2 0.0 46.0 -4.4 50.0
363 26 1 0.0 49.2 1.0 50.0
364 26 2 0.0 49.2 4.4 50.0
365 27 1 0.0 60.0 1.0 50.0
366 27 2 0.0 60.0 4.4 50.0
367 27 1 0.0 63.2 -1.0 50.0
368 27 2 0.0 63.2 -4.4 50.0
369 27 1 0.0 66.4 1.0 50.0
370 27 2 0.0 66.4 4.4 50.0
371 27 1 0.0 69.6 -1.0 50.0
372 27 2 0.0 69.6 -4.4 50.0
373 27 1 0.0 72.8 1.0 50.0
374 27 2 0.0 72.8 4.4 50.0
375 27 1 0.0 76.0 -1.0 50.0
376 27 2 0.0 76.0 -4.4 50.0
377 27 1 0.0 79.2 1.0 50.0
378 27 2 0.0 79.2 4.4 50.0
379 28 1 0.0 0.0 26.0 50.0
380 28 2 0.0 0.0 29.4 50.0
381 28 1 0.0 3.2 24.0 50.0
382 28 2 0.0 3.2 20.6 50.0
383 28 1 0.0 6.4 26.0 50.0
384 28 2 0.0 6.4 29.4 50.0
385 28 1 0.0 9.6 24.0 50.0
386 28 2 0.0 9.6 20.6 50.0
387 28 1 0.0 12.8 26.0 50.0
388 28 2 0.0 12.8 29.4 50.0
389 28 1 0.0 16.0 24.0 50.0
390 28 2 0.0 16.0 20.6 50.0
391 28 1 0.0 19.2 26.0 50.0
392 28 2 0.0 19.2 29.4 50.0
393 29 1 0.0 30.0 26.0 50.0
394 29 2 0.0 30.0 29.4 50.0
395 29 1 0.0 33.2 24.0 50.0
396 29 2 0.0 33.2 20.6 50.0
397 29 1 0.0 36.4 26.0 50.0
398 29 2 0.0 36.4 29.4 50.0
399 29 1 0.0 39.6 24.0 50.0
400 29 2 0.0 39.6 20.6 50.0
401 29 1 0.0 42.8 26.0 50.0
402 29 2 0.0 42.8 29.4 50.0
403 29 1 0.0 46.0 24.0 50.0
404 29 2 0.0 46.0 20.6 50.0
405 29 1 0.0 49.2 26.0 50.0
406 29 2 0.0 49.2 29.4 50.0
407 30 1 0.0 60.0 26.0 50.0
408 30 2 0.0 60.0 29.4 50.0
409 30 1 0.0 63.2 24.0 50.0
410 30 2 0.0 63.2 20.6 50.0
411 30 1 0.0 66.4 26.0 50.0
412 30 2 0.0 66.4 29.4 50.0
413 30 1 0.0 69.6 24.0 50.0
414 30 2 0.0 69.6 20.6 50.0
415 30 1 0.0 72.8 26.0 50.0
416 30 2 0.0 72.8 29.4 50.0
417 30 1 0.0 76.0 24.0 50.0
418 30 2 0.0 76.0 20.6 50.0
419 30 1 0.0 79.2 26.0 50.0
420 30 2 0.0 79.2 29.4 50.0
421 31 1 0.0 0.0 51.0 50.0
422 31 2 0.0 0.0 54.4 50.0
423 31 1 0.0 3.2 49.0 50.0
424 31 2 0.0 3.2 45.6 50.0
425 31 1 0.0 6.4 51.0 50.0
426 31 2 0.0 6.4 54.4 50.0
427 31 1 0.0 9.6 49.0 50.0
428 31 2 0.0 9.6 45.6 50.0
429 31 1 0.0 12.8 51.0 50.0
430 31 2 0.0 12.8 54.4 50.0
431 31 1 0.0 16.0 49.0 50.0
432 31 2 0.0 16.0 45.6 50.0
433 31 1 0.0 19.2 51.0 50.0
434 31 2 0.0 19.2 54.4 50.0
435 32 1 0.0 30.0 51.0 50.0
436 32 2 0.0 30.0 54.4 50.0
437 32 1 0.0 33.2 49.0 50.0
438 32 2 0.0 33.2 45.6 50.0
439 32 1 0.0 36.4 51.0 50.0
440 32 2 0.0 36.4 54.4 50.0
441 32 1 0.0 39.6 49.0 50.0
442 32 2 0.0 39.6 45.6 50.0
443 32 1 0.0 42.8 51.0 50.0
444 32 2 0.0 42.8 54.4 50.0
445 32 1 0.0 46.0 49.0 50.0
446 32 2 0.0 46.0 45.6 50.0
447 32 1 0.0 49.2 51.0 50.0
448 32 2 0.0 49.2 54.4 50.0
449 33 1 0.0 60.0 51.0 50.0
450 33 2 0.0 60.0 54.4 50.0
451 33 1 0.0 63.2 49.0 50.0
452 33 2 0.0 63.2 45.6 50.0
453 33 1 0.0 66.4 51.0 50.0
454 33 2 0.0 66.4 54.4 50.0
455 33 1 0.0 69.6 49.0 50.0
456 33 2 0.0 69.6 45.6 50.0
457 33 1 0.0 72.8 51.0 50.0
458 33 2 0.0 72.8 54.4 50.0
459 33 1 0.0 76.0 49.0 50.0
460 33 2 0.0 76.0 45.6 50.0
461 33 1 0.0 79.2 51.0 50.0
462 33 2 0.0 79.2 54.4 50.0
463 34 1 0.0 0.0 76.0 50.0
464 34 2 0.0 0.0 79.4 50.0
465 34 1 0.0 3.2 74.0 50.0
466 34 2 0.0 3.2 70.6 50.0
467 34 1 0.0 6.4 76.0 50.0
468 34 2 0.0 6.4 79.4 50.0
469 34 1 0.0 9.6 74.0 50.0
470 34 2 0.0 9.6 70.6 50.0
471 34 1 0.0 12.8 76.0 50.0
472 34 2 0.0 12.8 79.4 50.0
473 34 1 0.0 16.0 74.0 50.0
474 34 2 0.0 16.0 70.6 50.0
475 34 1 0.0 19.2 76.0 50.0
476 34 2 0.0 19.2 79.4 50.0
477 35 1 0.0 30.0 76.0 50.0
478 35 2 0.0 30.0 79.4 50.0
479 35 1 0.0 33.2 74.0 50.0
480 35 2 0.0 33.2 70.6 50.0
481 35 1 0.0 36.4 76.0 50.0
482 35 2 0.0 36.4 79.4 50.0
483 35 1 0.0 39.6 74.0 50.0
484 35 2 0.0 39.6 70.6 50.0
485 35 1 0.0 42.8 76.0 50.0
486 35 2 0.0 42.8 79.4 50.0
487 35 1 0.0 46.0 74.0 50.0
488 35 2 0.0 46.0 70.6 50.0
489 35 1 0.0 49.2 76.0 50.0
490 35 2 0.0 49.2 79.4 50.0
491 36 1 0.0 60.0 76.0 50.0
492 36 2 0.0 60.0 79.4 50.0
493 36 1 0.0 63.2 74.0 50.0
494 36 2 0.0 63.2 70.6 50.0
495 36 1 0.0 66.4 76.0 50.0
496 36 2 0.0 66.4 79.4 50.0
497 36 1 0.0 69.6 74.0 50.0
498 36 2 0.0 69.6 70.6 50.0
499 36 1 0.0 72.8 76.0 50.0
500 36 2 0.0 72.8 79.4 50.0
501 36 1 0.0 76.0 74.0 50.0
502 36 2 0.0 76.0 70.6 50.0
503 36 1 0.0 79.2 76.0 50.0
504 36 2 0.0 79.2 79.4 50.0
505 37 1 0.0 0.0 1.0 75.0
506 37 2 0.0 0.0 4.4 75.0
507 37 1 0.0 3.2 -1.0 75.0
508 37 2 0.0 3.2 -4.4 75.0
509 37 1 0.0 6.4 1.0 75.0
510 37 2 0.0 6.4 4.4 75.0
511 37 1 0.0 9.6 -1.0 75.0
512 37 2 0.0 9.6 -4.4 75.0
513 37 1 0.0 12.8 1.0 75.0
514 37 2 0.0 12.8 4.4 75.0
515 37 1 0.0 16.0 -1.0 75.0
516 37 2 0.0 16.0 -4.4 75.0
517 37 1 0.0 19.2 1.0 75.0
518 37 2 0.0 19.2 4.4 75.0
519 38 1 0.0 30.0 1.0 75.0
520 38 2 0.0 30.0 4.4 75.0
521 38 1 0.0 33.2 -1.0 75.0
522 38 2 0.0 33.2 -4.4 75.0
523 38 1 0.0 36.4 1.0 75.0
524 38 2 0.0 36.4 4.4 75.0
525 38 1 0.0 39.6 -1.0 75.0
526 38 2 0.0 39.6 -4.4 75.0
527 38 1 0.0 42.8 1.0 75.0
528 38 2 0.0 42.8 4.4 75.0
529 38 1 0.0 46.0 -1.0 75.0
530 38 2 0.0 46.0 -4.4 75.0
531 38 1 0.0 49.2 1.0 75.0
532 38 2 0.0 49.2 4.4 75.0
533 39 1 0.0 60.0 1.0 75.0
534 39 2 0.0 60.0 4.4 75.0
535 39 1 0.0 63.2 -1.0 75.0
536 39 2 0.0 63.2 -4.4 75.0
537 39 1 0.0 66.4 1.0 75.0
538 39 2 0.0 66.4 4.4 75.0
539 39 1 0.0 69.6 -1.0 75.0
540 39 2 0.0 69.6 -4.4 75.0
541 39 1 0.0 72.8 1.0 75.0
542 39 2 0.0 72.8 4.4 75.0
543 39 1 0.0 76.0 -1.0 75.0
544 39 2 0.0 76.0 -4.4 75.0
545 39 1 0.0 79.2 1.0 75.0
546 39 2 0.0 79.2 4.4 75.0
547 40 1 0.0 0.0 26.0 75.0
548 40 2 0.0 0.0 29.4 75.0
549 40 1 0.0 3.2 24.0 75.0
550 40 2 0.0 3.2 20.6 75.0
551 40 1 0.0 6.4 26.0 75.0
552 40 2 0.0 6.4 29.4 75.0
553 40 1 0.0 9.6 24.0 75.0
554 40 2 0.0 9.6 20.6 75.0
555 40 1 0.0 12.8 26.0 75.0
556 40 2 0.0 12.8 29.4 75.0
557 40 1 0.0 16.0 24.0 75.0
558 40 2 0.0 16.0 20.6 75.0
559 40 1 0.0 19.2 26.0 75.0
560 40 2 0.0 19.2 29.4 75.0
561 41 1 0.0 30.0 26.0 75.0
562 41 2 0.0 30.0 29.4 75.0
563 41 1 0.0 33.2 24.0 75.0
564 41 2 0.0 33.2 20.6 75.0
565 41 1 0.0 36.4 26.0 75.0
566 41 2 0.0 36.4 29.4 75.0
567 41 1 0.0 39.6 24.0 75.0
568 41 2 0.0 39.6 20.6 75.0
569 41 1 0.0 42.8 26.0 75.0
570 41 2 0.0 42.8 29.4 75.0
571 41 1 0.0 46.0 24.0 75.0
572 41 2 0.0 46.0 20.6 75.0
573 41 1 0.0 49.2 26.0 75.0
574 41 2 0.0 49.2 29.4 75.0
575 42 1 0.0 60.0 26.0 75.0
576 42 2 0.0 60.0 29.4 75.0
577 42 1 0.0 63.2 24.0 75.0
578 42 2 0.0 63.2 20.6 75.0
579 42 1 0.0 66.4 26.0 75.0
580 42 2 0.0 66.4 29.4 75.0
581 42 1 0.0 69.6 24.0 75.0
582 42 2 0.0 69.6 20.6 75.0
583 42 1 0.0 72.8 26.0 75.0
584 42 2 0.0 72.8 29.4 75.0
585 42 1 0.0 76.0 24.0 75.0
586 42 2 0.0 76.0 20.6 75.0
587 42 1 0.0 79.2 26.0 75.0
588 42 2 0.0 79.2 29.4 75.0
589 43 1 0.0 0.0 51.0 75.0
590 43 2 0.0 0.0 54.4 75.0
591 43 1 0.0 3.2 49.0 75.0
592 43 2 0.0 3.2 45.6 75.0
593 43 1 0.0 6.4 51.0 75.0
594 43 2 0.0 6.4 54.4 75.0
595 43 1 0.0 9.6 49.0 75.0
596 43 2 0.0 9.6 45.6 75.0
597 43 1 0.0 12.8 51.0 75.0
598 43 2 0.0 12.8 54.4 75.0
599 43 1 0.0 16.0 49.0 75.0
600 43 2 0.0 16.0 45.6 75.0
601 43 1 0.0 19.2 51.0 75.0
602 43 2 0.0 19.2 54.4 75.0
603 44 1 0.0 30.0 51.0 75.0
604 44 2 0.0 30.0 54.4 75.0
605 44 1 0.0 33.2 49.0 75.0
606 44 2 0.0 33.2 45.6 75.0
607 44 1 0.0 36.4 51.0 75.0
608 44 2 0.0 36.4 54.4 75.0
609 44 1 0.0 39.6 49.0 75.0
610 44 2 0.0 39.6 45.6 75.0
611 44 1 0.0 42.8 51.0 75.0
612 44 2 0.0 42.8 54.4 75.0
613 44 1 0.0 46.0 49.0 75.0
614 44 2 0.0 46.0 45.6 75.0
615 44 1 0.0 49.2 51.0 75.0
616 44 2 0.0 49.2 54.4 75.0
617 45 1 0.0 60.0 51.0 75.0
618 45 2 0.0 60.0 54.4 75.0
619 45 1 0.0 63.2 49.0 75.0
620 45 2 0.0 63.2 45.6 75.0
621 45 1 0.0 66.4 51.0 75.0
622 45 2 0.0 66.4 54.4 75.0
623 45 1 0.0 69.6 49.0 75.0
624 45 2 0.0 69.6 45.6 75.0
625 45 1 0.0 72.8 51.0 75.0
626 45 2 0.0 72.8 54.4 75.0
627 45 1 0.0 76.0 49.0 75.0
628 45 2 0.0 76.0 45.6 75.0
629 45 1 0.0 79.2 51.0 75.0
630 45 2 0.0 79.2 54.4 75.0
631 46 1 0.0 0.0 76.0 75.0
632 46 2 0.0 0.0 79.4 75.0
633 46 1 0.0 3.2 74.0 75.0
634 46 2 0.0 3.2 70.6 75.0
635 46 1 0.0 6.4 76.0 75.0
636 46 2 0.0 6.4 79.4 75.0
637 46 1 0.0 9.6 74.0 75.0
638 46 2 0.0 9.6 70.6 75.0
639 46 1 0.0 12.8 76.0 75.0
640 46 2 0.0 12.8 79.4 75.0
641 46 1 0.0 16.0 74.0 75.0
642 46 2 0.0 16.0 70.6 75.0
643 46 1 0.0 19.2 76.0 75.0
644 46 2 0.0 19.2 79.4 75.0
645 47 1 0.0 30.0 76.0 75.0
646 47 2 0.0 30.0 79.4 75.0
647 47 1 0.0 33.2 74.0 75.0
648 47 2 0.0 33.2 70.6 75.0
649 47 1 0.0 36.4 76.0 75.0
650 47 2 0.0 36.4 79.4 75.0
651 47 1 0.0 39.6 74.0 75.0
652 47 2 0.0 39.6 70.6 75.0
653 47 1 0.0 42.8 76.0 75.0
654 47 2 0.0 42.8 79.4 75.0
655 47 1 0.0 46.0 74.0 75.0
656 47 2 0.0 46.0 70.6 75.0
657 47 1 0.0 49.2 76.0 75.0
658 47 2 0.0 49.2 79.4 75.0
659 48 1 0.0 60.0 76.0 75.0
660 48 2 0.0 60.0 79.4 75.0
661 48 1 0.0 63.2 74.0 75.0
662 48 2 0.0 63.2 70.6 75.0
663 48 1 0.0 66.4 76.0 75.0
664 48 2 0.0 66.4 79.4 75.0
665 48 1 0.0 69.6 74.0 75.0
666 48 2 0.0 69.6 70.6 75.0
667 48 1 0.0 72.8 76.0 75.0
668 48 2 0.0 72.8 79.4 75.0
669 48 1 0.0 76.0 74.0 75.0
670 48 2 0.0 76.0 70.6 75.0
671 48 1 0.0 79.2 76.0 75.0
672 48 2 0.0 79.2 79.4 75.0

Bonds

1 1 1 2
2 1 3 4
3 1 5 6
4 1 7 8
5 1 9 10
6 1 11 12
7 1 13 14
8 2 1 3
9 2 3 5
10 2 5 7
11 2 7 9
12 2 9 11
13 2 11 13
14 1 15 16
15 1 17 18
16 1 19 20
17 1 21 22
18 1 23 24
19 1 25 26
20 1 27 28
21 2 15 17
22 2 17 19
23 2 19 21
24 2 21 23
25 2 23 25
26 2 25 27
27 1 29 30
28 1 31 32
29 1 33 34
30 1 35 36
31 1 37 38
32 1 39 40
33 1 41 42
34 2 29 31
35 2 31 33
36 2 33 35
37 2 35 37
38 2 37 39
39 2 39 41
40 1 43 44
41 1 45 46
42 1 47 48
43 1 49 50
44 1 51 52
45 1 53 54
46 1 55 56
47 2 43 45
48 2 45 47
49 2 47 49
50 2 49 51
51 2 51 53
52 2 53 55
53 1 57 58
54 1 59 60
55 1 61 62
56 1 63 64
57 1 65 66
58 1 67 68
59 1 69 70
60 2 57 59
61 2 59 61
62 2 61 63
63 2 63 65
64 2 65 67
65 2 67 69
66 1 71 72
67 1 73 74
68 1 75 76
69 1 77 78
70 1 79 80
71 1 81 82
72 1 83 84
73 2 71 73
74 2 73 75
75 2 75 77
76 2 77 79
77 2 79 81
78 2 81 83
79 1 85 86
80 1 87 88
81 1 89 90
82 1 91 92
83 1 93 94
84 1 95 96
85 1 97 98
86 2 85 87
87 2 87 89
88 2 89 91
89 2 91 93
90 2 93 95
91 2 95 97
92 1 99 100
93 1 101 102
94 1 103 104
95 1 105 106
96 1 107 108
97 1 109 110
98 1 111 112
99 2 99 101
100 2 101 103
101 2 103 105
102 2 105 107
103 2 107 109
104 2 109 111
105 1 113 114
106 1 115 116
107 1 117 118
108 1 119 120
109 1 121 122
110 1 123 124
111 1 125 126
112 2 113 115
113 2 115 117
114 2 117 119
115 2 119 121
116 2 121 123
117 2 123 125
118 1 127 128
119 1 129 130
120 1 131 132
121 1 133 134
122 1 135 136
123 1 137 138
124 1 139 140
125 2 127 129
126 2 129 131
127 2 131 133
128 2 133 135
129 2 135 137
130 2 137 139
131 1 141 142
132 1 143 144
133 1 145 146
134 1 147 148
135 1 149 150
136 1 151 152
137 1 153 154
138 2 141 143
139 2 143 145
140 2 145 147
141 2 147 149
142 2 149 151
143 2 151 153
144 1 155 156
145 1 157 158
146 1 159 160
147 1 161 162
148 1 163 164
149 1 165 166
150 1 167 168
151 2 155 157
152 2 157 159
153 2 159 161
154 2 161 163
155 2 163 165
156 2 165 167
157 1 169 170
158 1 171 172
159 1 173 174
160 1 175 176
161 1 177 178
162 1 179 180
163 1 181 182
164 2 169 171
165 2 171 173
166 2 173 175
167 2 175 177
168 2 177 179
169 2 179 181
170 1 183 184
171 1 185 186
172 1 187 188
173 1 189 190
174 1 191 192
175 1 193 194
176 1 195 196
177 2 183 185
178 2 185 187
179 2 187 189
180 2 189 191
181 2 191 193
182 2 193 195
183 1 197 198
184 1 199 200
185 1 201 202
186 1 203 204
187 1 205 206
188 1 207 208
189 1 209 210
190 2 197 199
191 2 199 201
192 2 201 203
193 2 203 205
194 2 205 207
195 2 207 209
196 1 211 212
197 1 213 214
198 1 215 216
199 1 217 218
200 1 219 220
201 1 221 222
202 1 223 224
203 2 211 213
204 2 213 215
205 2 215 217
206 2 217 219
207 2 219 221
208 2 221 223
209 1 225 226
210 1 227 228
211 1 229 230
212 1 231 232
213 1 233 234
214 1 235 236
215 1 237 238
216 2 225 227
217 2 227 229
218 2 229 231
219 2 231 233
220 2 233 235
221 2 235 237
222 1 239 240
223 1 241 242
224 1 243 244
225 1 245 246
226 1 247 248
227 1 249 250
228 1 251 252
229 2 239 241
230 2 241 243
231 2 243 245
232 2 245 247
233 2 247 249
234 2 249 251
235 1 253 254
236 1 255 256
237 1 257 258
238 1 259 260
239 1 261 262
240 1 263 264
241 1 265 266
242 2 253 255
243 2 255 257
244 2 257 259
245 2 259 261
246 2 261 263
247 2 263 265
248 1 267 268
249 1 269 270
250 1 271 272
251 1 273 274
252 1 275 276
253 1 277 278
254 1 279 280
255 2 267 269
256 2 269 271
257 2 271 273
258 2 273 275
259 2 275 277
260 2 277 279
261 1 281 282
262 1 283 284
263 1 285 286
264 1 287 288
265 1 289 290
266 1 291 292
267 1 293 294
268 2 281 283
269 2 283 285
270 2 285 287
271 2 287 289
272 2 289 291
273 2 291 293
274 1 295 296
275 1 297 298
276 1 299 300
277 1 301 302
278 1 303 304
279 1 305 306
280 1 307 308
281 2 295 297
282 2 297 299
283 2 299 301
284 2 301 303
285 2 303 305
286 2 305 307
287 1 309 310
288 1 311 312
289 1 313 314
290 1 315 316
291 1 317 318
292 1 319 320
293 1 321 322
294 2 309 311
295 2 311 313
296 2 313 315
297 2 315 317
298 2 317 319
299 2 319 321
300 1 323 324
301 1 325 326
302 1 327 328
303 1 329 330
304 1 331 332
305 1 333 334
306 1 335 336
307 2 323 325
308 2 325 327
309 2 327 329
310 2 329 331
311 2 331 333
312 2 333 335
313 1 337 338
314 1 339 340
315 1 341 342
316 1 343 344
317 1 345 346
318 1 347 348
319 1 349 350
320 2 337 339
321 2 339 341
322 2 341 343
323 2 343 345
324 2 345 347
325 2 347 349
326 1 351 352
327 1 353 354
328 1 355 356
329 1 357 358
330 1 359 360
331 1 361 362
332 1 363 364
333 2 351 353
334 2 353 355
335 2 355 357
336 2 357 359
337 2 359 361
338 2 361 363
339 1 365 366
340 1 367 368
341 1 369 370
342 1 371 372
343 1 373 374
344 1 375 376
345 1 377 378
346 2 365 367
347 2 367 369
348 2 369 371
349 2 371 373
350 2 373 375
351 2 375 377
352 1 379 380
353 1 381 382
354 1 383 384
355 1 385 386
356 1 387 388
357 1 389 390
358 1 391 392
359 2 379 381
360 2 381 383
361 2 383 385
362 2 385 387
363 2 387 389
364 2 389 391
365 1 393 394
366 1 395 396
367 1 397 398
368 1 399 400
369 1 401 402
370 1 403 404
371 1 405 406
372 2 393 395
373 2 395 397
374 2 397 399
375 2 399 401
376 2 401 403
377 2 403 405
378 1 407 408
379 1 409 410
380 1 411 412
381 1 413 414
382 1 415 416
383 1 417 418
384 1 419 420
385 2 407 409
386 2 409 411
387 2 411 413
388 2 413 415
389 2 415 417
390 2 417 419
391 1 421 422
392 1 423 424
393 1 425 426
394 1 427 428
395 1 429 430
396 1 431 432
397 1 433 434
398 2 421 423
399 2 423 425
400 2 425 427
401 2 427 429
402 2 429 431
403 2 431 433
404 1 435 436
405 1 437 438
406 1 439 440
407 1 441 442
408 1 443 444
409 1 445 446
410 1 447 448
411 2 435 437
412 2 437 439
413 2 439 441
414 2 441 443
415 2 443 445
416 2 445 447
417 1 449 450
418 1 451 452
419 1 453 454
420 1 455 456
421 1 457 458
422 1 459 460
423 1 461 462
424 2 449 451
425 2 451 453
426 2 453 455
427 2 455 457
428 2 457 459
429 2 459 461
430 1 463 464
431 1 465 466
432 1 467 468
433 1 469 470
434 1 471 472
435 1 473 474
436 1 475 476
437 2 463 465
438 2 465 467
439 2 467 469
440 2 469 471
441 2 471 473
442 2 473 475
443 1 477 478
444 1 479 480
445 1 481 482
446 1 483 484
447 1 485 486
448 1 487 488
449 1 489 490
450 2 477 479
451 2 479 481
452 2 481 483
453 2 483 485
454 2 485 487
455 2 487 489
456 1 491 492
457 1 493 494
458 1 495 496
459 1 497 498
460 1 499 500
461 1 501 502
462 1 503 504
463 2 491 493
464 2 493 495
465 2 495 497
466 2 497 499
467 2 499 501
468 2 501 503
469 1 505 506
470 1 507 508
471 1 509 510
472 1 511 512
473 1 513 514
474 1 515 516
475 1 517 518
476 2 505 507
477 2 507 509
478 2 509 511
479 2 511 513
480 2 513 515
481 2 515 517
482 1 519 520
483 1 521 522
484 1 523 524
485 1 525 526
486 1 527 528
487 1 529 530
488 1 531 532
489 2 519 521
490 2 521 523
491 2 523 525
492 2 525 527
493 2 527 529
494 2 529 531
495 1 533 534
496 1 535 536
497 1 537 538
498 1 539 540
499 1 541 542
500 1 543 544
501 1 545 546
502 2 533 535
503 2 535 537
504 2 537 539
505 2 539 541
506 2 541 543
507 2 543 545
508 1 547 548
509 1 549 550
510 1 551 552
511 1 553 554
512 1 555 556
513 1 557 558
514 1 559 560
515 2 547 549
516 2 549 551
517 2 551 553
518 2 553 555
519 2 555 557
520 2 557 559
521 1 561 562
522 1 563 564
523 1 565 566
524 1 567 568
525 1 569 570
526 1 571 572
527 1 573 574
528 2 561 563
529 2 563 565
530 2 565 567
531 2 567 569
532 2 569 571
533 2 571 573
534 1 575 576
535 1 577 578
536 1 579 580
537 1 581 582
538 1 583 584
539 1 585 586
540 1 587 588
541 2 575 577
542 2 577 579
543 2 579 581
544 2 581 583
545 2 583 585
546 2 585 587
547 1 589 590
548 1 591 592
549 1 593 594
550 1 595 596
551 1 597 598
552 1 599 600
553 1 601 602
554 2 589 591
555 2 591 593
556 2 593 595
557 2 595 597
558 2 597 599
559 2 599 601
560 1 603 604
561 1 605 606
562 1 607 608
563 1 609 610
564 1 611 612
565 1 613 614
566 1 615 616
567 2 603 605
568 2 605 607
569 2 607 609
570 2 609 611
571 2 611 613
572 2 613 615
573 1 617 618
574 1 619 620
575 1 621 622
576 1 623 624
577 1 625 626
578 1 627 628
579 1 629 630
580 2 617 619
581 2 619 621
582 2 621 623
583 2 623 625
584 2 625 627
585 2 627 629
586 1 631 632
587 1 633 634
588 1 635 636
589 1 637 638
590 1 639 640
591 1 641 642
592 1 643 644
593 2 631 633
594 2 633 635
595 2 635 637
596 2 637 639
597 2 639 641
598 2 641 643
599 1 645 646
600 1 647 648
601 1 649 650
602 1 651 652
603 1 653 654
604 1 655 656
605 1 657 658
606 2 645 647
607 2 647 649
608 2 649 651
609 2 651 653
610 2 653 655
611 2 655 657
612 1 659 660
613 1 661 662
614 1 663 664
615 1 665 666
616 1 667 668
617 1 669 670
618 1 671 672
619 2 659 661
620 2 661 663
621 2 663 665
622 2 665 667
623 2 667 669
624 2 669 671

Angles

1 1 1 3 5
2 1 3 5 7
3 1 5 7 9
4 1 7 9 11
5 1 9 11 13
6 1 15 17 19
7 1 17 19 21
8 1 19 21 23
9 1 21 23 25
10 1 23 25 27
11 1 29 31 33
12 1 31 33 35
13 1 33 35 37
14 1 35 37 39
15 1 37 39 41
16 1 43 45 47
17 1 45 47 49
18 1 47 49 51
19 1 49 51 53
20 1 51 53 55
21 1 57 59 61
22 1 59 61 63
23 1 61 63 65
24 1 63 65 67
25 1 65 67 69
26 1 71 73 75
27 1 73 75 77
28 1 75 77 79
29 1 77 79 81
30 1 79 81 83
31 1 85 87 89
32 1 87 89 91
33 1 89 91 93
34 1 91 93 95
35 1 93 95 97
36 1 99 101 103
37 1 101 103 105
38 1 103 105 107
39 1 105 107 109
40 1 107 109 111
41 1 113 115 117
42 1 115 117 119
43 1 117 119 121
44 1 119 121 123
45 1 121 123 125
46 1 127 129 131
47 1 129 131 133
48 1 131 133 135
49 1 133 135 137
50 1 135 137 139
51 1 141 143 145
52 1 143 145 147
53 1 145 147 149
54 1 147 149 151
55 1 149 151 153
56 1 155 157 159
57 1 157 159 161
58 1 159 161 163
59 1 161 163 165
60 1 163 165 167
61 1 169 171 173
62 1 171 173 175
63 1 173 175 177
64 1 175 177 179
65 1 177 179 181
66 1 183 185 187
67 1 185 187 189
68 1 187 189 191
69 1 189 191 193
70 1 191 193 195
71 1 197 199 201
72 1 199 201 203
73 1 201 203 205
74 1 203 205 207
75 1 205 207 209
76 1 211 213 215
77 1 213 215 217
78 1 215 217 219
79 1 217 219 221
80 1 219 221 223
81 1 225 227 229
82 1 227 229 231
83 1 229 231 233
84 1 231 233 235
85 1 233 235 237
86 1 239 241 243
87 1 241 243 245
88 1 243 245 247
89 1 245 247 249
90 1 247 249 251
91 1 253 255 257
92 1 255 257 259
93 1 257 259 261
94 1 259 261 263
95 1 261 263 265
96 1 267 269 271
97 1 269 271 273
98 1 271 273 275
99 1 273 275 277
100 1 275 277 279
101 1 281 283 285
102 1 283 285 287
103 1 285 287 289
104 1 287 289 291
105 1 289 291 293
106 1 295 297 299
107 1 297 299 301
108 1 299 301 303
109 1 301 303 305
110 1 303 305 307
111 1 309 311 313
112 1 311 313 315
113 1 313 315 317
114 1 315 317 319
115 1 317 319 321
116 1 323 325 327
117 1 325 327 329
118 1 327 329 331
119 1 329 331 333
120 1 331 333 335
121 1 337 339 341
122 1 339 341 343
123 1 341 343 345
124 1 343 345 347
125 1 345 347 349
126 1 351 353 355
127 1 353 355 357
128 1 355 357 359