   1   1   0   0
  0.1641025E+02  0.2852398E-09  0.2852398E-09  0.2852398E-09  0.5000000E-15
  1.000000000000000E-004
  CAR 
 unknown system                          
     37.53628458     -5.15559978  301      8.23179616      1.00000000
     -5.156  0.0000E+00  0.0000E+00
     -5.013  0.0000E+00  0.0000E+00
     -4.871 -0.1094E-35 -0.1557E-36
     -4.729 -0.1220E-30 -0.1736E-31
     -4.586 -0.4891E-26 -0.6961E-27
     -4.444 -0.7103E-22 -0.1011E-22
     -4.302 -0.3635E-18 -0.5174E-19
     -4.159 -0.6952E-15 -0.9898E-16
     -4.017 -0.4902E-12 -0.6986E-13
     -3.875 -0.1294E-09 -0.1849E-10
     -3.733 -0.1296E-07 -0.1863E-08
     -3.590 -0.4883E-06 -0.7136E-07
     -3.448 -0.6394E-05 -0.9813E-06
     -3.306 -0.1973E-04 -0.3789E-05
     -3.163  0.6597E-04  0.5598E-05
     -3.021  0.3960E-03  0.6196E-04
     -2.879  0.8390E-03  0.1814E-03
     -2.736  0.1047E-02  0.3304E-03
     -2.594  0.1310E-02  0.5168E-03
     -2.452  0.1604E-02  0.7451E-03
     -2.309  0.1408E-02  0.9455E-03
     -2.167  0.1797E-02  0.1201E-02
     -2.025  0.2281E-02  0.1526E-02
     -1.883  0.1830E-02  0.1786E-02
     -1.740  0.1748E-02  0.2035E-02
     -1.598  0.2607E-02  0.2406E-02
     -1.456  0.2931E-02  0.2823E-02
     -1.313  0.2055E-02  0.3116E-02
     -1.171  0.2167E-02  0.3424E-02
     -1.029  0.2839E-02  0.3828E-02
     -0.886  0.3037E-02  0.4260E-02
     -0.744  0.3477E-02  0.4755E-02
     -0.602  0.2794E-02  0.5153E-02
     -0.459  0.1989E-02  0.5436E-02
     -0.317  0.3041E-02  0.5869E-02
     -0.175  0.4261E-02  0.6475E-02
     -0.033  0.3707E-02  0.7003E-02
      0.110  0.3078E-02  0.7441E-02
      0.252  0.3421E-02  0.7927E-02
      0.394  0.2561E-02  0.8292E-02
      0.537  0.3363E-02  0.8770E-02
      0.679  0.4917E-02  0.9470E-02
      0.821  0.4435E-02  0.1010E-01
      0.964  0.3447E-02  0.1059E-01
      1.106  0.3578E-02  0.1110E-01
      1.248  0.3961E-02  0.1166E-01
      1.390  0.3281E-02  0.1213E-01
      1.533  0.3982E-02  0.1270E-01
      1.675  0.4912E-02  0.1340E-01
      1.817  0.5018E-02  0.1411E-01
      1.960  0.5480E-02  0.1489E-01
      2.102  0.3756E-02  0.1543E-01
      2.244  0.2325E-02  0.1576E-01
      2.387  0.4315E-02  0.1637E-01
      2.529  0.5820E-02  0.1720E-01
      2.671  0.4946E-02  0.1790E-01
      2.814  0.4890E-02  0.1860E-01
      2.956  0.5483E-02  0.1938E-01
      3.098  0.4811E-02  0.2006E-01
      3.240  0.5075E-02  0.2079E-01
      3.383  0.4424E-02  0.2142E-01
      3.525  0.3580E-02  0.2192E-01
      3.667  0.5024E-02  0.2264E-01
      3.810  0.6701E-02  0.2359E-01
      3.952  0.5569E-02  0.2439E-01
      4.094  0.5908E-02  0.2523E-01
      4.237  0.5816E-02  0.2605E-01
      4.379  0.4402E-02  0.2668E-01
      4.521  0.5562E-02  0.2747E-01
      4.664  0.5121E-02  0.2820E-01
      4.806  0.4337E-02  0.2882E-01
      4.948  0.5696E-02  0.2963E-01
      5.090  0.7426E-02  0.3069E-01
      5.233  0.6757E-02  0.3165E-01
      5.375  0.7024E-02  0.3265E-01
      5.517  0.6462E-02  0.3357E-01
      5.660  0.5328E-02  0.3432E-01
      5.802  0.5516E-02  0.3511E-01
      5.944  0.4997E-02  0.3582E-01
      6.087  0.6004E-02  0.3667E-01
      6.229  0.6728E-02  0.3763E-01
      6.371  0.5232E-02  0.3838E-01
      6.514  0.4290E-02  0.3899E-01
      6.656  0.6913E-02  0.3997E-01
      6.798  0.8448E-02  0.4117E-01
      6.940  0.5397E-02  0.4194E-01
      7.083  0.5499E-02  0.4272E-01
      7.225  0.6732E-02  0.4368E-01
      7.367  0.4777E-02  0.4436E-01
      7.510  0.5275E-02  0.4511E-01
      7.652  0.6889E-02  0.4609E-01
      7.794  0.6253E-02  0.4698E-01
      7.937  0.6845E-02  0.4796E-01
      8.079  0.6417E-02  0.4887E-01
      8.221  0.7318E-02  0.4991E-01
      8.363  0.7911E-02  0.5104E-01
      8.506  0.6245E-02  0.5193E-01
      8.648  0.7008E-02  0.5292E-01
      8.790  0.5733E-02  0.5374E-01
      8.933  0.4567E-02  0.5439E-01
      9.075  0.5198E-02  0.5513E-01
      9.217  0.7146E-02  0.5615E-01
      9.360  0.1001E-01  0.5757E-01
      9.502  0.9642E-02  0.5894E-01
      9.644  0.6711E-02  0.5990E-01
      9.787  0.4925E-02  0.6060E-01
      9.929  0.6998E-02  0.6159E-01
     10.071  0.7325E-02  0.6264E-01
     10.213  0.7131E-02  0.6365E-01
     10.356  0.6062E-02  0.6451E-01
     10.498  0.5887E-02  0.6535E-01
     10.640  0.6808E-02  0.6632E-01
     10.783  0.9014E-02  0.6760E-01
     10.925  0.9459E-02  0.6895E-01
     11.067  0.7901E-02  0.7007E-01
     11.210  0.8131E-02  0.7123E-01
     11.352  0.7395E-02  0.7228E-01
     11.494  0.5823E-02  0.7311E-01
     11.637  0.6205E-02  0.7400E-01
     11.779  0.7831E-02  0.7511E-01
     11.921  0.8650E-02  0.7634E-01
     12.063  0.9244E-02  0.7766E-01
     12.206  0.7356E-02  0.7870E-01
     12.348  0.7011E-02  0.7970E-01
     12.490  0.9247E-02  0.8102E-01
     12.633  0.8535E-02  0.8223E-01
     12.775  0.7943E-02  0.8336E-01
     12.917  0.9324E-02  0.8469E-01
     13.060  0.8506E-02  0.8590E-01
     13.202  0.5763E-02  0.8672E-01
     13.344  0.6754E-02  0.8768E-01
     13.487  0.8896E-02  0.8895E-01
     13.629  0.1080E-01  0.9048E-01
     13.771  0.1200E-01  0.9219E-01
     13.913  0.9524E-02  0.9355E-01
     14.056  0.8186E-02  0.9471E-01
     14.198  0.7987E-02  0.9585E-01
     14.340  0.6950E-02  0.9684E-01
     14.483  0.9502E-02  0.9819E-01
     14.625  0.1270E-01  0.1000E+00
     14.767  0.1032E-01  0.1015E+00
     14.910  0.8757E-02  0.1027E+00
     15.052  0.7704E-02  0.1038E+00
     15.194  0.7561E-02  0.1049E+00
     15.337  0.7459E-02  0.1059E+00
     15.479  0.8484E-02  0.1072E+00
     15.621  0.1159E-01  0.1088E+00
     15.763  0.1151E-01  0.1104E+00
     15.906  0.8212E-02  0.1116E+00
     16.048  0.7392E-02  0.1127E+00
     16.190  0.7733E-02  0.1138E+00
     16.333  0.6904E-02  0.1147E+00
     16.475  0.7417E-02  0.1158E+00
     16.617  0.1033E-01  0.1173E+00
     16.760  0.1058E-01  0.1188E+00
     16.902  0.8226E-02  0.1199E+00
     17.044  0.7827E-02  0.1211E+00
     17.186  0.9578E-02  0.1224E+00
     17.329  0.1034E-01  0.1239E+00
     17.471  0.7852E-02  0.1250E+00
     17.613  0.7693E-02  0.1261E+00
     17.756  0.6920E-02  0.1271E+00
     17.898  0.7372E-02  0.1281E+00
     18.040  0.1100E-01  0.1297E+00
     18.183  0.1175E-01  0.1314E+00
     18.325  0.9129E-02  0.1327E+00
     18.467  0.8662E-02  0.1339E+00
     18.610  0.8423E-02  0.1351E+00
     18.752  0.7556E-02  0.1362E+00
     18.894  0.1014E-01  0.1376E+00
     19.036  0.1114E-01  0.1392E+00
     19.179  0.8044E-02  0.1404E+00
     19.321  0.6933E-02  0.1413E+00
     19.463  0.9458E-02  0.1427E+00
     19.606  0.1301E-01  0.1445E+00
     19.748  0.1267E-01  0.1463E+00
     19.890  0.1097E-01  0.1479E+00
     20.033  0.9484E-02  0.1493E+00
     20.175  0.9652E-02  0.1506E+00
     20.317  0.1149E-01  0.1523E+00
     20.460  0.1251E-01  0.1540E+00
     20.602  0.1177E-01  0.1557E+00
     20.744  0.1049E-01  0.1572E+00
     20.886  0.9126E-02  0.1585E+00
     21.029  0.9550E-02  0.1599E+00
     21.171  0.9967E-02  0.1613E+00
     21.313  0.1065E-01  0.1628E+00
     21.456  0.1092E-01  0.1644E+00
     21.598  0.9543E-02  0.1657E+00
     21.740  0.1035E-01  0.1672E+00
     21.883  0.1133E-01  0.1688E+00
     22.025  0.1217E-01  0.1705E+00
     22.167  0.1031E-01  0.1720E+00
     22.310  0.9784E-02  0.1734E+00
     22.452  0.1075E-01  0.1749E+00
     22.594  0.8870E-02  0.1762E+00
     22.736  0.7298E-02  0.1772E+00
     22.879  0.7063E-02  0.1782E+00
     23.021  0.8706E-02  0.1795E+00
     23.163  0.1150E-01  0.1811E+00
     23.306  0.1338E-01  0.1830E+00
     23.448  0.1343E-01  0.1849E+00
     23.590  0.1078E-01  0.1865E+00
     23.733  0.1023E-01  0.1879E+00
     23.875  0.1410E-01  0.1899E+00
     24.017  0.1381E-01  0.1919E+00
     24.159  0.1105E-01  0.1935E+00
     24.302  0.1105E-01  0.1950E+00
     24.444  0.9060E-02  0.1963E+00
     24.586  0.7556E-02  0.1974E+00
     24.729  0.7008E-02  0.1984E+00
     24.871  0.8745E-02  0.1996E+00
     25.013  0.1522E-01  0.2018E+00
     25.156  0.1729E-01  0.2043E+00
     25.298  0.1417E-01  0.2063E+00
     25.440  0.1242E-01  0.2080E+00
     25.583  0.1034E-01  0.2095E+00
     25.725  0.1032E-01  0.2110E+00
     25.867  0.1160E-01  0.2126E+00
     26.009  0.1070E-01  0.2142E+00
     26.152  0.1320E-01  0.2160E+00
     26.294  0.1357E-01  0.2180E+00
     26.436  0.1007E-01  0.2194E+00
     26.579  0.9985E-02  0.2208E+00
     26.721  0.9490E-02  0.2222E+00
     26.863  0.1106E-01  0.2237E+00
     27.006  0.1449E-01  0.2258E+00
     27.148  0.1169E-01  0.2275E+00
     27.290  0.9508E-02  0.2288E+00
     27.433  0.9231E-02  0.2301E+00
     27.575  0.1077E-01  0.2317E+00
     27.717  0.1293E-01  0.2335E+00
     27.859  0.8597E-02  0.2347E+00
     28.002  0.4446E-02  0.2354E+00
     28.144  0.4367E-02  0.2360E+00
     28.286  0.9313E-02  0.2373E+00
     28.429  0.1137E-01  0.2389E+00
     28.571  0.9087E-02  0.2402E+00
     28.713  0.9108E-02  0.2415E+00
     28.856  0.9172E-02  0.2428E+00
     28.998  0.9854E-02  0.2442E+00
     29.140  0.8242E-02  0.2454E+00
     29.283  0.5389E-02  0.2462E+00
     29.425  0.7081E-02  0.2472E+00
     29.567  0.9878E-02  0.2486E+00
     29.709  0.9516E-02  0.2499E+00
     29.852  0.8380E-02  0.2511E+00
     29.994  0.6594E-02  0.2521E+00
     30.136  0.5080E-02  0.2528E+00
     30.279  0.5665E-02  0.2536E+00
     30.421  0.5782E-02  0.2544E+00
     30.563  0.4960E-02  0.2551E+00
     30.706  0.4622E-02  0.2558E+00
     30.848  0.5941E-02  0.2566E+00
     30.990  0.5476E-02  0.2574E+00
     31.133  0.3615E-02  0.2579E+00
     31.275  0.3268E-02  0.2584E+00
     31.417  0.4394E-02  0.2590E+00
     31.559  0.5038E-02  0.2597E+00
     31.702  0.4146E-02  0.2603E+00
     31.844  0.3623E-02  0.2608E+00
     31.986  0.3673E-02  0.2614E+00
     32.129  0.2948E-02  0.2618E+00
     32.271  0.1743E-02  0.2620E+00
     32.413  0.1039E-02  0.2622E+00
     32.556  0.3515E-02  0.2627E+00
     32.698  0.4757E-02  0.2633E+00
     32.840  0.2978E-02  0.2638E+00
     32.982  0.2567E-02  0.2641E+00
     33.125  0.2042E-02  0.2644E+00
     33.267  0.1583E-02  0.2647E+00
     33.409  0.2231E-02  0.2650E+00
     33.552  0.1948E-02  0.2652E+00
     33.694  0.8864E-03  0.2654E+00
     33.836  0.1053E-02  0.2655E+00
     33.979  0.1379E-02  0.2657E+00
     34.121  0.1396E-02  0.2659E+00
     34.263  0.1433E-02  0.2661E+00
     34.406  0.9101E-03  0.2663E+00
     34.548  0.9140E-03  0.2664E+00
     34.690  0.6457E-03  0.2665E+00
     34.832  0.5001E-04  0.2665E+00
     34.975 -0.1545E-04  0.2665E+00
     35.117  0.4387E-03  0.2665E+00
     35.259  0.6339E-03  0.2666E+00
     35.402  0.1795E-03  0.2667E+00
     35.544  0.2691E-04  0.2667E+00
     35.686  0.4339E-04  0.2667E+00
     35.829  0.5803E-05  0.2667E+00
     35.971 -0.3015E-05  0.2667E+00
     36.113 -0.5082E-06  0.2667E+00
     36.256 -0.2086E-07  0.2667E+00
     36.398 -0.2722E-09  0.2667E+00
     36.540 -0.1209E-11  0.2667E+00
     36.682 -0.1876E-14  0.2667E+00
     36.825 -0.1043E-17  0.2667E+00
     36.967  0.0000E+00  0.2667E+00
     37.109  0.0000E+00  0.2667E+00
     37.252  0.0000E+00  0.2667E+00
     37.394  0.0000E+00  0.2667E+00
     37.536  0.0000E+00  0.2667E+00
