    1    1   60    1
  0.1641025E+02  0.2852398E-09  0.2852398E-09  0.2852398E-09  0.5000000E-15
  1.000000000000000E-004
  CAR 
 unknown system                          
      3    195      8
 
  0.0000000E+00  0.0000000E+00  0.0000000E+00  0.1714678E-03
    1       -3.155600   1.000000
    2       21.046308   0.000000
    3       21.046308   0.000000
    4       21.046309   0.000000
    5       22.698474   0.000000
    6       22.698475   0.000000
    7       22.698475   0.000000
    8       25.168063   0.000000
 
  0.5555556E-01  0.6110234E-18 -0.1422829E-18  0.1371742E-02
    1       -3.069495   1.000000
    2       19.543072   0.000000
    3       20.751986   0.000000
    4       20.751987   0.000000
    5       23.125794   0.000000
    6       23.125795   0.000000
    7       23.270926   0.000000
    8       26.044795   0.000000
 
  0.1111111E+00  0.1222047E-17 -0.2845657E-18  0.1371742E-02
    1       -2.811511   1.000000
    2       17.291548   0.000000
    3       20.250899   0.000000
    4       20.250899   0.000000
    5       23.355264   0.000000
    6       23.994850   0.000000
    7       23.994850   0.000000
    8       26.452758   0.000000
 
  0.1666667E+00  0.8948536E-17  0.6453087E-17  0.1371742E-02
    1       -2.382635   1.000000
    2       15.015432   0.000000
    3       19.807634   0.000000
    4       19.807635   0.000000
    5       23.200487   0.000000
    6       24.586230   0.000000
    7       24.586231   0.000000
    8       25.822818   0.000000
 
  0.2222222E+00  0.6090112E-17 -0.4215150E-17  0.1371742E-02
    1       -1.784496   1.000000
    2       12.813174  -0.000000
    3       19.480325   0.000000
    4       19.480325   0.000000
    5       23.032713   0.000000
    6       23.784559   0.000000
    7       23.784559   0.000000
    8       26.792150   0.000000
 
  0.2777778E+00  0.3231689E-17 -0.8879859E-18  0.1371742E-02
    1       -1.019350   1.000000
    2       10.718253  -0.000000
    3       19.284977   0.000000
    4       19.284977   0.000000
    5       22.776703   0.000000
    6       22.776704   0.000000
    7       22.935922   0.000000
    8       26.991033   0.000000
 
  0.3333333E+00  0.1413344E-16  0.1643458E-16  0.1371742E-02
    1       -0.089993   1.000000
    2        8.747047  -0.000818
    3       19.227449   0.000000
    4       19.227449   0.000000
    5       21.858984   0.000000
    6       21.858985   0.000000
    7       22.952026   0.000000
    8       26.035814   0.000000
 
  0.3888889E+00  0.1278474E-17  0.2002710E-17  0.1371742E-02
    1        1.000176   1.000000
    2        6.909630   1.000000
    3       19.310424   0.000000
    4       19.310425   0.000000
    5       21.068547   0.000000
    6       21.068547   0.000000
    7       23.103312   0.000000
    8       25.181573   0.000000
 
  0.4444444E+00  0.1218022E-16 -0.8430300E-17  0.1371742E-02
    1        2.246175   1.000000
    2        5.214295   1.000000
    3       19.535104   0.000000
    4       19.535105   0.000000
    5       20.416384   0.000000
    6       20.416384   0.000000
    7       23.399224   0.000000
    8       24.452012   0.000000
 
  0.5000000E+00 -0.4673600E-17  0.8892265E-17  0.6858711E-03
    1        3.521370   1.000000
    2        3.789159   1.000000
    3       19.873092   0.000000
    4       19.873092   0.000000
    5       19.935450   0.000000
    6       19.935450   0.000000
    7       23.778274   0.000000
    8       23.926501   0.000000
 
  0.5555556E-01  0.5555556E-01  0.1378303E-17  0.1028807E-02
    1       -3.040798   1.000000
    2       20.044099   0.000000
    3       20.044099   0.000000
    4       20.289011   0.000000
    5       22.432023   0.000000
    6       23.866731   0.000000
    7       23.866731   0.000000
    8       26.154976   0.000000
 
  0.1111111E+00  0.5555556E-01  0.8246016E-18  0.4115226E-02
    1       -2.840146   1.000000
    2       18.066825   0.000000
    3       19.401263   0.000000
    4       20.364925   0.000000
    5       22.586859   0.000000
    6       24.281678   0.000000
    7       24.791473   0.000000
    8       25.329680   0.000000
 
  0.1666667E+00  0.5555556E-01  0.3945791E-17  0.4115226E-02
    1       -2.468283   1.000000
    2       15.812083   0.000000
    3       18.877288   0.000000
    4       20.133164   0.000000
    5       23.240189   0.000000
    6       24.197717   0.000000
    7       24.229972   0.000000
    8       25.637089   0.000000
 
  0.2222222E+00  0.5555556E-01  0.7390568E-17  0.4115226E-02
    1       -1.926660   1.000000
    2       13.593094   0.000000
    3       18.486924   0.000000
    4       19.840312   0.000000
    5       22.590929   0.000000
    6       24.019943   0.000000
    7       24.854411   0.000000
    8       25.260751   0.000000
 
  0.2777778E+00  0.5555556E-01 -0.3277669E-17  0.4115226E-02
    1       -1.217316   1.000000
    2       11.466674  -0.000000
    3       18.235500   0.000000
    4       19.627929   0.000000
    5       21.506867   0.000000
    6       23.908978   0.000000
    7       24.300836   0.000000
    8       26.152589   0.000000
 
  0.3333333E+00  0.5555556E-01  0.4949520E-19  0.4115226E-02
    1       -0.342848   1.000000
    2        9.456705  -0.000000
    3       18.125402   0.000000
    4       19.535422   0.000000
    5       20.522379   0.000000
    6       23.370719   0.000000
    7       23.889151   0.000000
    8       26.760255   0.000000
 
  0.3888889E+00  0.5555556E-01  0.1360843E-16  0.4115226E-02
    1        0.693543   1.000000
    2        7.576204   1.000018
    3       18.157963   0.000000
    4       19.529426   0.000000
    5       19.720301   0.000000
    6       22.548878   0.000000
    7       23.991354   0.000000
    8       26.019326   0.000000
 
  0.4444444E+00  0.5555556E-01  0.2940191E-17  0.4115226E-02
    1        1.887623   1.000000
    2        5.834185   1.000000
    3       18.334097   0.000000
    4       18.932767   0.000000
    5       19.792823   0.000000
    6       21.856346   0.000000
    7       24.228730   0.000000
    8       25.279835   0.000000
 
  0.5000000E+00  0.5555556E-01 -0.7492819E-17  0.4115226E-02
    1        3.225138   1.000000
    2        4.247169   1.000000
    3       18.366991   0.000000
    4       18.654511   0.000000
    5       20.124227   0.000000
    6       21.301012   0.000000
    7       24.556978   0.000000
    8       24.709275   0.000000
 
 -0.4444444E+00  0.5555556E-01 -0.7954784E-17  0.4115226E-02
    1        2.766864   1.000000
    2        4.755262   1.000000
    3       17.944468   0.000000
    4       19.119491   0.000000
    5       20.603596   0.000000
    6       20.885957   0.000000
    7       24.157163   0.000000
    8       25.145618   0.000000
 
 -0.3888889E+00  0.5555556E-01  0.9367781E-17  0.4115226E-02
    1        1.472450   1.000000
    2        6.398601   1.000000
    3       17.668383   0.000000
    4       19.728367   0.000000
    5       20.612311   0.000000
    6       21.225966   0.000000
    7       23.817266   0.000000
    8       25.799197   0.000000
 
 -0.3333333E+00  0.5555556E-01 -0.4828861E-17  0.4115226E-02
    1        0.330334   1.000000
    2        8.187375   0.682918
    3       17.539285   0.000000
    4       20.439781   0.000000
    5       20.518992   0.000000
    6       21.985294   0.000000
    7       23.619806   0.000000
    8       26.566125   0.000000
 
 -0.2777778E+00  0.5555556E-01 -0.1573233E-16  0.4115226E-02
    1       -0.652485   1.000000
    2       10.111312  -0.000000
    3       17.556990   0.000000
    4       20.477719   0.000000
    5       21.374329   0.000000
    6       22.865486   0.000000
    7       23.564126   0.000000
    8       27.370741   0.000000
 
 -0.2222222E+00  0.5555556E-01  0.1825467E-17  0.4115226E-02
    1       -1.472252   1.000000
    2       12.159875  -0.000000
    3       17.720989   0.000000
    4       20.614183   0.000000
    5       22.383111   0.000000
    6       23.547573   0.000000
    7       23.928641   0.000000
    8       26.156932   0.000000
 
 -0.1666667E+00  0.5555556E-01  0.5152631E-17  0.4115226E-02
    1       -2.125963   1.000000
    2       14.315012   0.000000
    3       18.031357   0.000000
    4       20.866918   0.000000
    5       23.403278   0.000000
    6       23.693005   0.000000
    7       24.933233   0.000000
    8       24.938958   0.000000
 
 -0.1111111E+00  0.5555556E-01  0.4833777E-17  0.4115226E-02
    1       -2.611185   1.000000
    2       16.533237   0.000000
    3       18.495746   0.000000
    4       21.178393   0.000000
    5       23.366139   0.000000
    6       23.794693   0.000000
    7       25.030209   0.000000
    8       25.104973   0.000000
 
 -0.5555556E-01  0.5555556E-01  0.1222047E-17  0.2057613E-02
    1       -2.926099   1.000000
    2       18.570608   0.000000
    3       19.262122   0.000000
    4       21.269369   0.000000
    5       22.840230   0.000000
    6       23.658411   0.000000
    7       24.128927   0.000000
    8       26.307501   0.000000
 
  0.1111111E+00  0.1111111E+00  0.2756606E-17  0.1028807E-02
    1       -2.696988   1.000000
    2       18.675874   0.000000
    3       18.675874   0.000000
    4       18.912012   0.000000
    5       21.756206   0.000000
    6       23.883297   0.000000
    7       25.717067   0.000000
    8       25.717067   0.000000
 
  0.1666667E+00  0.1111111E+00  0.1497301E-17  0.4115226E-02
    1       -2.382607   1.000000
    2       16.675795   0.000000
    3       18.087194   0.000000
    4       19.178133   0.000000
    5       21.775785   0.000000
    6       22.490110   0.000000
    7       26.161790   0.000000
    8       26.657167   0.000000
 
  0.2222222E+00  0.1111111E+00  0.4824465E-17  0.4115226E-02
    1       -1.898193   1.000000
    2       14.486148   0.000000
    3       17.639484   0.000000
    4       19.127202   0.000000
    5       21.096577   0.000000
    6       22.669612   0.000000
    7       26.149959   0.000000
    8       26.754926   0.000000
 
  0.2777778E+00  0.1111111E+00  0.8210436E-17  0.4115226E-02
    1       -1.245616   1.000000
    2       12.348915  -0.000000
    3       17.334417   0.000000
    4       18.948908   0.000000
    5       19.918098   0.000000
    6       23.878056   0.000000
    7       25.918875   0.000000
    8       26.103934   0.000000
 
  0.3333333E+00  0.1111111E+00 -0.2340188E-17  0.4115226E-02
    1       -0.427285   1.000000
    2       10.311244  -0.000000
    3       17.172787   0.000000
    4       18.683758   0.000000
    5       19.014628   0.000000
    6       25.002826   0.000000
    7       25.163750   0.000000
    8       26.236603   0.000000
 
  0.3888889E+00  0.1111111E+00 -0.2776656E-17  0.4115226E-02
    1        0.553765   1.000000
    2        8.394457   0.006626
    3       17.155106   0.000000
    4       17.870464   0.000000
    5       18.919679   0.000000
    6       24.162087   0.000000
    7       25.807490   0.000000
    8       26.982621   0.000000
 
  0.4444444E+00  0.1111111E+00  0.1478114E-16  0.4115226E-02
    1        1.693651   1.000000
    2        6.610812   1.000000
    3       17.102002   0.000000
    4       17.281870   0.000000
    5       19.065493   0.000000
    6       23.436533   0.000000
    7       25.982506   0.000000
    8       26.888834   0.000000
 
  0.5000000E+00  0.1111111E+00  0.3877672E-17  0.4115226E-02
    1        2.984928   1.000000
    2        4.971742   1.000000
    3       16.474158   0.000000
    4       17.553539   0.000000
    5       19.366623   0.000000
    6       22.841143   0.000000
    7       25.840892   0.000000
    8       26.774395   0.000000
 
 -0.4444444E+00  0.1111111E+00  0.3650934E-17  0.4115226E-02
    1        3.442140   1.000000
    2        4.464259   1.000000
    3       15.994920   0.000000
    4       17.970403   0.000000
    5       19.818888   0.000000
    6       22.382277   0.000000
    7       25.437403   0.000000
    8       27.118974   0.000000
 
 -0.3888889E+00  0.1111111E+00 -0.6782076E-17  0.4115226E-02
    1        2.108304   1.000000
    2        6.045199   1.000000
    3       15.667292   0.000000
    4       18.532293   0.000000
    5       20.419226   0.000000
    6       22.062404   0.000000
    7       25.078417   0.000000
    8       27.651951   0.000000
 
 -0.3333333E+00  0.1111111E+00  0.6776857E-17  0.4115226E-02
    1        0.916452   1.000000
    2        7.779477   1.003141
    3       15.493482   0.000000
    4       19.237766   0.000000
    5       21.162533   0.000000
    6       21.881729   0.000000
    7       24.829453   0.000000
    8       28.261876   0.000000
 
 -0.2777778E+00  0.1111111E+00 -0.3891380E-17  0.4115226E-02
    1       -0.118124   1.000000
    2        9.646530  -0.000000
    3       15.476531   0.000000
    4       20.081920   0.000000
    5       21.838257   0.000000
    6       22.040437   0.000000
    7       24.691588   0.000000
    8       27.227444   0.000000
 
 -0.2222222E+00  0.1111111E+00 -0.1455962E-16  0.4115226E-02
    1       -0.991099   1.000000
    2       11.628266  -0.000000
    3       15.624185   0.000000
    4       21.046822   0.000000
    5       21.927181   0.000000
    6       23.038620   0.000000
    7       24.637412   0.000000
    8       25.686543   0.000000
 
 -0.1666667E+00  0.1111111E+00  0.2762948E-17  0.4115226E-02
    1       -1.699251   1.000000
    2       13.675322   0.000000
    3       15.969379   0.000000
    4       21.937452   0.000000
    5       22.244302   0.000000
    6       24.125983   0.000000
    7       24.404547   0.000000
    8       24.594254   0.000000
 
 -0.1111111E+00  0.1111111E+00  0.2444094E-17  0.2057613E-02
    1       -2.239967   1.000000
    2       15.517535   0.000000
    3       16.749147   0.000000
    4       21.937199   0.000000
    5       22.945913   0.000000
    6       24.040381   0.000000
    7       24.368558   0.000000
    8       25.185096   0.000000
 
  0.1666667E+00  0.1666667E+00  0.4134909E-17  0.1028807E-02
    1       -2.125917   1.000000
    2       17.440696   0.000000
    3       17.440696   0.000000
    4       17.551165   0.000000
    5       20.891948   0.000000
    6       20.950577   0.000000
    7       27.696297   0.000000
    8       27.696297   0.000000
 
  0.2222222E+00  0.1666667E+00  0.2699564E-17  0.4115226E-02
    1       -1.699220   1.000000
    2       15.450822   0.000000
    3       16.938754   0.000000
    4       17.991070   0.000000
    5       19.555350   0.000000
    6       20.917338   0.000000
    7       28.215949   0.000000
    8       28.231718   0.000000
 
  0.2777778E+00  0.1666667E+00  0.2527878E-17  0.4115226E-02
    1       -1.104174   1.000000
    2       13.346475  -0.000000
    3       16.581566   0.000000
    4       17.977511   0.000000
    5       18.379359   0.000000
    6       21.771423   0.000000
    7       27.591983   0.000000
    8       28.330818   0.000000
 
  0.3333333E+00  0.1666667E+00 -0.1083852E-17  0.4115226E-02
    1       -0.343030   1.000000
    2       11.300520  -0.000000
    3       16.369115   0.000000
    4       17.092604   0.000000
    5       18.076805   0.000000
    6       23.081984   0.000000
    7       26.733974   0.000000
    8       28.352647   0.000000
 
  0.3888889E+00  0.1666667E+00 -0.1402707E-17  0.4115226E-02
    1        0.581337   1.000000
    2        9.357804  -0.000000
    3       16.120662   0.000000
    4       16.301422   0.000000
    5       18.061984   0.000000
    6       24.593709   0.000000
    7       25.895623   0.000000
    8       28.395131   0.000000
 
  0.4444444E+00  0.1666667E+00  0.1924457E-17  0.4115226E-02
    1        1.665204   1.000000
    2        7.539141   1.000006
    3       15.284397   0.000000
    4       16.378653   0.000000
    5       18.180933   0.000000
    6       25.148313   0.000000
    7       26.092799   0.000000
    8       28.484291   0.000000
 
  0.5000000E+00  0.1666667E+00  0.1924702E-16  0.4115226E-02
    1        2.902814   1.000000
    2        5.857783   1.000000
    3       14.596414   0.000000
    4       16.601059   0.000000
    5       18.445922   0.000000
    6       24.519417   0.000000
    7       26.943533   0.000000
    8       28.962985   0.000000
 
 -0.4444444E+00  0.1666667E+00 -0.8970518E-17  0.4115226E-02
    1        4.155260   1.000000
    2        4.455477   1.000000
    3       14.061623   0.000000
    4       16.968959   0.000000
    5       18.861952   0.000000
    6       24.020955   0.000000
    7       26.826788   0.000000
    8       29.488927   0.000000
 
 -0.3888889E+00  0.1666667E+00  0.8352047E-17  0.4115226E-02
    1        2.904565   1.000000
    2        5.849856   1.000000
    3       13.684075   0.000000
    4       17.482466   0.000000
    5       19.428664   0.000000
    6       23.657581   0.000000
    7       26.499869   0.000000
    8       29.908691   0.000000
 
 -0.3333333E+00  0.1666667E+00 -0.5844595E-17  0.4115226E-02
    1        1.666038   1.000000
    2        7.521235   1.000003
    3       13.469401  -0.000000
    4       18.141194   0.000000
    5       20.141985   0.000000
    6       23.429087   0.000000
    7       26.205109   0.000000
    8       28.691124   0.000000
 
 -0.2777778E+00  0.1666667E+00  0.1124274E-16  0.4115226E-02
    1        0.581715   1.000000
    2        9.313607  -0.000000
    3       13.430415  -0.000000
    4       18.943591   0.000000
    5       20.993923   0.000000
    6       23.326861   0.000000
    7       25.967179   0.000000
    8       26.956025   0.000000
 
 -0.2222222E+00  0.1666667E+00  0.5745062E-18  0.4115226E-02
    1       -0.342892   1.000000
    2       11.168854  -0.000000
    3       13.614862   0.000000
    4       19.885469   0.000000
    5       21.970280   0.000000
    6       23.304925   0.000000
    7       25.401772   0.000000
    8       25.729571   0.000000
 
 -0.1666667E+00  0.1666667E+00 -0.9858504E-17  0.2057613E-02
    1       -1.104152   1.000000
    2       12.797815  -0.000000
    3       14.296642   0.000000
    4       20.955908   0.000000
    5       23.042449   0.000000
    6       23.045325   0.000000
    7       24.376306   0.000000
    8       25.327918   0.000000
 
  0.2222222E+00  0.2222222E+00  0.5513212E-17  0.1028807E-02
    1       -1.330545   1.000000
    2       16.350363   0.000000
    3       16.384504   0.000000
    4       16.384504   0.000000
    5       18.064899   0.000000
    6       20.007527   0.000000
    7       29.598003   0.000000
    8       29.655360   0.000000
 
  0.2777778E+00  0.2222222E+00  0.3607642E-17  0.4115226E-02
    1       -0.793582   1.000000
    2       14.413965   0.000000
    3       15.976241   0.000000
    4       16.675310   0.000000
    5       17.027538   0.000000
    6       20.067193   0.000000
    7       29.247934   0.000000
    8       30.230801   0.000000
 
  0.3333333E+00  0.2222222E+00  0.3465359E-17  0.4115226E-02
    1       -0.090492   1.000000
    2       12.403426  -0.000000
    3       15.513714   0.000000
    4       15.713522   0.000000
    5       17.188314   0.000000
    6       20.988504   0.000000
    7       28.524286   0.000000
    8       30.362617   0.000000
 
  0.3888889E+00  0.2222222E+00  0.9967785E-17  0.4115226E-02
    1        0.776000   1.000000
    2       10.454231  -0.000000
    3       14.468025   0.000000
    4       15.596081   0.000000
    5       17.237426   0.000000
    6       22.394329   0.000000
    7       27.726050   0.000000
    8       30.264717   0.000000
 
  0.4444444E+00  0.2222222E+00 -0.4652255E-18  0.4115226E-02
    1        1.802203   1.000000
    2        8.611098  -0.011007
    3       13.568929   0.000000
    4       15.623813   0.000000
    5       17.345621   0.000000
    6       24.030832   0.000000
    7       26.976138   0.000000
    8       29.955208   0.000000
 
  0.5000000E+00  0.2222222E+00  0.3097166E-17  0.4115226E-02
    1        2.982745   1.000000
    2        6.895170   1.000000
    3       12.822240  -0.000000
    4       15.796834   0.000000
    5       17.578281   0.000000
    6       25.755742   0.000000
    7       26.324587   0.000000
    8       29.527116   0.000000
 
 -0.4444444E+00  0.2222222E+00 -0.2535560E-16  0.4115226E-02
    1        4.297976   1.000000
    2        5.331643   1.000000
    3       12.233318  -0.000000
    4       16.115411   0.000000
    5       17.956090   0.000000
    6       25.793314   0.000000
    7       27.304294   0.000000
    8       29.280964   0.000000
 
 -0.3888889E+00  0.2222222E+00 -0.8033037E-17  0.4115226E-02
    1        3.856225   1.000000
    2        5.810723   1.000000
    3       11.809354  -0.000000
    4       16.579774   0.000000
    5       18.484294   0.000000
    6       25.391153   0.000000
    7       27.840958   0.000000
    8       29.922913   0.000000
 
 -0.3333333E+00  0.2222222E+00  0.5525896E-17  0.4115226E-02
    1        2.575903   1.000000
    2        7.401253   1.000000
    3       11.565738  -0.000000
    4       17.190045   0.000000
    5       19.161053   0.000000
    6       25.118117   0.000000
    7       27.607426   0.000000
    8       28.612102   0.000000
 
 -0.2777778E+00  0.2222222E+00 -0.5142341E-17  0.4115226E-02
    1        1.444237   1.000000
    2        9.061399  -0.000000
    3       11.557110  -0.000000
    4       17.945797   0.000000
    5       19.979310   0.000000
    6       24.949200   0.000000
    7       26.839983   0.000000
    8       27.212527   0.000000
 
 -0.2222222E+00  0.2222222E+00  0.1218022E-16  0.2057613E-02
    1        0.469948   1.000000
    2       10.484312  -0.000000
    3       12.077966  -0.000000
    4       18.845572   0.000000
    5       20.925226   0.000000
    6       24.584679   0.000000
    7       25.522205   0.000000
    8       26.626313   0.000000
 
  0.2777778E+00  0.2777778E+00  0.6891515E-17  0.1028807E-02
    1       -0.315142   1.000000
    2       15.308314   0.000000
    3       15.349706   0.000000
    4       15.517653   0.000000
    5       15.517653   0.000000
    6       19.197854   0.000000
    7       30.491837   0.000000
    8       31.448177   0.000000
 
  0.3333333E+00  0.2777778E+00  0.4721543E-17  0.4115226E-02
    1        0.329221   1.000000
    2       13.557546   0.000000
    3       14.065717   0.000000
    4       15.205148   0.000000
    5       16.146033   0.000000
    6       19.331417   0.000000
    7       30.277383   0.000000
    8       31.954223   0.000000
 
  0.3888889E+00  0.2777778E+00  0.2169112E-16  0.4115226E-02
    1        1.136698   1.000000
    2       11.652117  -0.000000
    3       12.953473  -0.000000
    4       15.038209   0.000000
    5       16.439045   0.000000
    6       20.346089   0.000000
    7       29.605209   0.000000
    8       31.950471   0.000000
 
  0.4444444E+00  0.2777778E+00  0.1125811E-16  0.4115226E-02
    1        2.103523   1.000000
    2        9.808505  -0.000000
    3       11.991175  -0.000000
    4       15.016586   0.000000
    5       16.597591   0.000000
    6       21.854337   0.000000
    7       28.889212   0.000000
    8       31.610235   0.000000
 
  0.5000000E+00  0.2777778E+00  0.4722556E-18  0.4115226E-02
    1        3.223865   1.000000
    2        8.071591   0.990309
    3       11.185476  -0.000000
    4       15.140253   0.000000
    5       16.816447   0.000000
    6       23.603405   0.000000
    7       28.234176   0.000000
    8       31.084192   0.000000
 
 -0.4444444E+00  0.2777778E+00  0.1377046E-16  0.4115226E-02
    1        4.484867   1.000000
    2        6.466447   1.000000
    3       10.544560  -0.000000
    4       15.409396   0.000000
    5       17.160786   0.000000
    6       25.470435   0.000000
    7       27.681555   0.000000
    8       30.493032   0.000000
 
 -0.3888889E+00  0.2777778E+00 -0.2441812E-16  0.4115226E-02
    1        4.951441   1.000000
    2        5.922126   1.000000
    3       10.084694  -0.000000
    4       15.824339   0.000000
    5       17.649960   0.000000
    6       27.249220   0.000000
    7       27.328228   0.000000
    8       29.893732   0.000000
 
 -0.3333333E+00  0.2777778E+00 -0.1085919E-16  0.4115226E-02
    1        3.641776   1.000000
    2        7.369245   1.000000
    3        9.862147  -0.000000
    4       16.385377   0.000000
    5       18.287320   0.000000
    6       26.938256   0.000000
    7       28.671985   0.000000
    8       28.748813   0.000000
 
 -0.2777778E+00  0.2777778E+00  0.6463377E-17  0.2057613E-02
    1        2.465960   1.000000
    2        8.592028  -0.014387
    3       10.184138  -0.000000
    4       17.092627   0.000000
    5       19.068002   0.000000
    6       26.537342   0.000000
    7       27.035114   0.000000
    8       28.264012   0.000000
 
  0.3333333E+00  0.3333333E+00  0.8269818E-17  0.1028807E-02
    1        0.914150   1.000000
    2       12.712674  -0.000000
    3       14.564005   0.000000
    4       14.843173   0.000000
    5       14.843173   0.000000
    6       18.522960   0.000000
    7       31.527962   0.000000
    8       32.983889   0.000000
 
  0.3888889E+00  0.3333333E+00  0.5276629E-17  0.4115226E-02
    1        1.661433   1.000000
    2       11.526075  -0.000000
    3       12.964951  -0.000000
    4       14.626977   0.000000
    5       15.510728   0.000000
    6       18.750493   0.000000
    7       31.406567   0.000000
    8       33.355772   0.000000
 
  0.4444444E+00  0.3333333E+00  0.8809617E-17  0.4115226E-02
    1        2.566630   1.000000
    2       10.462455  -0.000000
    3       11.211707  -0.000000
    4       14.556168   0.000000
    5       15.899280   0.000000
    6       19.870815   0.000000
    7       30.818912   0.000000
    8       33.183018   0.000000
 
  0.5000000E+00  0.3333333E+00  0.1184275E-16  0.4115226E-02
    1        3.622090   1.000000
    2        9.266031  -0.000000
    3        9.810768  -0.000000
    4       14.630604   0.000000
    5       16.164046   0.000000
    6       21.484127   0.000000
    7       30.199077   0.000000
    8       32.677879   0.000000
 
 -0.4444444E+00  0.3333333E+00 -0.1673712E-17  0.4115226E-02
    1        4.810145   1.000000
    2        7.720070   1.000888
    3        9.045133  -0.000000
    4       14.850395   0.000000
    5       16.493127   0.000000
    6       23.338927   0.000000
    7       29.645541   0.000000
    8       31.992395   0.000000
 
 -0.3888889E+00  0.3333333E+00  0.1470795E-16  0.4115226E-02
    1        6.011094   1.000000
    2        6.298195   1.000000
    3        8.581700  -0.016445
    4       15.215849   0.000000
    5       16.948270   0.000000
    6       25.316928   0.000000
    7       29.196062   0.000000
    8       30.858961   0.000000
 
 -0.3333333E+00  0.3333333E+00 -0.2724427E-16  0.2057613E-02
    1        4.856738   1.000000
    2        7.123249   1.000000
    3        8.675569  -0.003703
    4       15.727371   0.000000
    5       17.546259   0.000000
    6       27.306658   0.000000
    7       28.866099   0.000000
    8       28.869940   0.000000
 
  0.3888889E+00  0.3888889E+00  0.9648121E-17  0.1028807E-02
    1        2.346744   1.000000
    2       10.299759  -0.000000
    3       13.999841   0.000000
    4       14.361682   0.000000
    5       14.361682   0.000000
    6       18.019128   0.000000
    7       32.619224   0.000000
    8       34.247725   0.000000
 
  0.4444444E+00  0.3888889E+00  0.6596505E-17  0.4115226E-02
    1        3.186316   1.000000
    2        9.222082  -0.000000
    3       12.538596  -0.000000
    4       14.241823   0.000000
    5       15.086697   0.000000
    6       18.350601   0.000000
    7       32.571629   0.000000
    8       34.462477   0.000000
 
  0.5000000E+00  0.3888889E+00  0.6218995E-17  0.4115226E-02
    1        4.165714   1.000000
    2        8.314276   0.181731
    3       10.856750  -0.000000
    4       14.267173   0.000000
    5       15.573031   0.000000
    6       19.579611   0.000000
    7       32.090608   0.000000
    8       34.104288   0.000000
 
 -0.4444444E+00  0.3888889E+00 -0.1523607E-16  0.4115226E-02
    1        5.233861   1.000000
    2        7.617951   1.000063
    3        9.243202  -0.000000
    4       14.437754   0.000000
    5       15.945318   0.000000
    6       21.296175   0.000000
    7       31.565273   0.000000
    8       33.231874   0.000000
 
 -0.3888889E+00  0.3888889E+00  0.2556947E-17  0.2057613E-02
    1        6.076507   1.000000
    2        7.280376   1.000000
    3        7.915932   1.024023
    4       14.753829   0.000000
    5       16.384487   0.000000
    6       23.249571   0.000000
    7       30.940525   0.000000
    8       31.480837   0.000000
 
  0.4444444E+00  0.4444444E+00  0.1102642E-16  0.1028807E-02
    1        3.949707   1.000000
    2        8.107331   0.929780
    3       13.660369   0.000000
    4       14.072999   0.000000
    5       14.072999   0.000000
    6       17.708723   0.000000
    7       33.565789   0.000000
    8       35.172392   0.000000
 
  0.5000000E+00  0.4444444E+00  0.1435527E-16  0.4115226E-02
    1        4.809025   1.000000
    2        7.207596   1.000000
    3       12.326426  -0.000000
    4       14.049372   0.000000
    5       14.874428   0.000000
    6       18.147119   0.000000
    7       33.521309   0.000000
    8       35.143950   0.000000
 
 -0.4444444E+00  0.4444444E+00  0.2436045E-16  0.2057613E-02
    1        5.449623   1.000000
    2        6.837973   1.000000
    3       10.747381  -0.000000
    4       14.170889   0.000000
    5       15.463884   0.000000
    6       19.481584   0.000000
    7       32.959044   0.000000
    8       34.098105   0.000000
 
  0.5000000E+00  0.5000000E+00  0.1240473E-16  0.5144033E-03
    1        5.240864   1.000000
    2        6.619509   1.000000
    3       13.547065  -0.000000
    4       13.976815   0.000000
    5       13.976816   0.000000
    6       17.603946   0.000000
    7       33.975396   0.000000
    8       35.536285   0.000000
 