       N       E                     dE             d eps       ncg     rms          rms(c)
DAV:   1    -0.294792413663E+01   -0.29479E+01   -0.82649E+02  3216   0.180E+02
DAV:   2    -0.420841143215E+01   -0.12605E+01   -0.12271E+01  4400   0.176E+01
DAV:   3    -0.421421927254E+01   -0.58078E-02   -0.58064E-02  3912   0.128E+00
DAV:   4    -0.421422931869E+01   -0.10046E-04   -0.10046E-04  5032   0.498E-02
DAV:   5    -0.421422933002E+01   -0.11335E-07   -0.11638E-07  3936   0.957E-04    0.929E-01
DAV:   6    -0.419660425512E+01    0.17625E-01   -0.26191E-03  4152   0.202E-01    0.571E-01
DAV:   7    -0.418521081902E+01    0.11393E-01   -0.68927E-03  4040   0.323E-01    0.241E-02
DAV:   8    -0.418520513439E+01    0.56846E-05   -0.15348E-05  4528   0.287E-02    0.586E-03
DAV:   9    -0.418520465416E+01    0.48023E-06   -0.28373E-07  4192   0.276E-03
   1 F= -.41852047E+01 E0= -.41850020E+01  d E =-.418520E+01
       N       E                     dE             d eps       ncg     rms          rms(c)
DAV:   1    -0.419151757775E+01   -0.63124E-02   -0.93353E-02  3768   0.121E+00    0.148E-01
DAV:   2    -0.419097638068E+01    0.54120E-03   -0.51709E-04  4184   0.169E-01    0.911E-02
DAV:   3    -0.419061137743E+01    0.36500E-03   -0.20377E-04  3784   0.529E-02    0.327E-03
DAV:   4    -0.419061127957E+01    0.97856E-07   -0.55481E-07  4360   0.544E-03
   2 F= -.41906113E+01 E0= -.41902257E+01  d E =-.540663E-02
       N       E                     dE             d eps       ncg     rms          rms(c)
DAV:   1    -0.419075083790E+01   -0.13946E-03   -0.14559E-03  3856   0.151E-01    0.185E-02
DAV:   2    -0.419074237234E+01    0.84656E-05   -0.81043E-06  4096   0.212E-02    0.114E-02
DAV:   3    -0.419073664900E+01    0.57233E-05   -0.31210E-06  3856   0.651E-03    0.405E-04
DAV:   4    -0.419073664745E+01    0.15493E-08   -0.78405E-09  1808   0.670E-04
   3 F= -.41907366E+01 E0= -.41903673E+01  d E =-.553199E-02
