ITEM: TIMESTEP
0
ITEM: NUMBER OF ATOMS
5
ITEM: BOX BOUNDS xy xz yz pp pp pp
0.0000000000000000e+00 1.0289339721999999e+01 3.6749877000000000e-02
-5.6322168999999998e-02 1.0263123642000000e+01 1.3833062300000001e-01
0.0000000000000000e+00 1.0216793284000000e+01 -5.6322168999999998e-02
ITEM: ATOMS id type x y z 
1 1 5.45139 4.32697 3.56645 
2 1 4.05859 4.94539 4.52744 
5 2 5.16284 4.77314 4.5439 
4 1 5.46957 4.13046 5.37415 
3 1 5.61737 5.77213 4.64888 
ITEM: TIMESTEP
100
ITEM: NUMBER OF ATOMS
5
ITEM: BOX BOUNDS xy xz yz pp pp pp
0.0000000000000000e+00 1.0289339721999999e+01 3.6749877000000000e-02
-5.6322168999999998e-02 1.0263123642000000e+01 1.3833062300000001e-01
0.0000000000000000e+00 1.0216793284000000e+01 -5.6322168999999998e-02
ITEM: ATOMS id type x y z 
1 1 5.00264 3.91609 3.91104 
5 2 5.16808 4.78089 4.53836 
4 1 4.22834 4.97282 5.08788 
3 1 5.90678 4.56726 5.33842 
2 1 5.39628 5.62571 3.84611 
ITEM: TIMESTEP
200
ITEM: NUMBER OF ATOMS
5
ITEM: BOX BOUNDS xy xz yz pp pp pp
0.0000000000000000e+00 1.0289339721999999e+01 3.6749877000000000e-02
-5.6322168999999998e-02 1.0263123642000000e+01 1.3833062300000001e-01
0.0000000000000000e+00 1.0216793284000000e+01 -5.6322168999999998e-02
ITEM: ATOMS id type x y z 
1 1 4.63548 4.30545 3.66776 
5 2 5.15025 4.78634 4.53485 
2 1 6.0884 4.21644 4.65521 
3 1 4.62577 4.65037 5.46826 
4 1 5.39841 5.84435 4.43433 
ITEM: TIMESTEP
300
ITEM: NUMBER OF ATOMS
5
ITEM: BOX BOUNDS xy xz yz pp pp pp
0.0000000000000000e+00 1.0289339721999999e+01 3.6749877000000000e-02
-5.6322168999999998e-02 1.0263123642000000e+01 1.3833062300000001e-01
0.0000000000000000e+00 1.0216793284000000e+01 -5.6322168999999998e-02
ITEM: ATOMS id type x y z 
1 1 5.17665 4.59219 3.47789 
5 2 5.15787 4.77568 4.55398 
2 1 4.40639 4.06849 4.94676 
4 1 6.1743 4.62117 4.93987 
3 1 4.89922 5.86267 4.63141 
ITEM: TIMESTEP
400
ITEM: NUMBER OF ATOMS
5
ITEM: BOX BOUNDS xy xz yz pp pp pp
0.0000000000000000e+00 1.0289339721999999e+01 3.6749877000000000e-02
-5.6322168999999998e-02 1.0263123642000000e+01 1.3833062300000001e-01
0.0000000000000000e+00 1.0216793284000000e+01 -5.6322168999999998e-02
ITEM: ATOMS id type x y z 
1 1 5.32702 4.00229 3.73747 
5 2 5.16128 4.76592 4.53581 
4 1 4.57924 4.42739 5.40359 
3 1 6.10766 5.18808 4.88278 
2 1 4.60176 5.6438 4.19021 
ITEM: TIMESTEP
500
ITEM: NUMBER OF ATOMS
5
ITEM: BOX BOUNDS xy xz yz pp pp pp
0.0000000000000000e+00 1.0289339721999999e+01 3.6749877000000000e-02
-5.6322168999999998e-02 1.0263123642000000e+01 1.3833062300000001e-01
0.0000000000000000e+00 1.0216793284000000e+01 -5.6322168999999998e-02
ITEM: ATOMS id type x y z 
1 1 4.6388 4.13629 3.83337 
5 2 5.16936 4.7888 4.55079 
2 1 6.23112 4.83748 4.24325 
3 1 4.97327 4.24538 5.4887 
4 1 4.67553 5.76789 4.46897 
ITEM: TIMESTEP
600
ITEM: NUMBER OF ATOMS
5
ITEM: BOX BOUNDS xy xz yz pp pp pp
0.0000000000000000e+00 1.0289339721999999e+01 3.6749877000000000e-02
-5.6322168999999998e-02 1.0263123642000000e+01 1.3833062300000001e-01
0.0000000000000000e+00 1.0216793284000000e+01 -5.6322168999999998e-02
ITEM: ATOMS id type x y z 
1 1 5.07094 4.63647 3.45485 
5 2 5.15475 4.77398 4.53017 
4 1 6.2143 4.94277 4.83098 
2 1 4.89146 3.92537 5.16914 
3 1 4.51724 5.66024 4.82671 
ITEM: TIMESTEP
700
ITEM: NUMBER OF ATOMS
5
ITEM: BOX BOUNDS xy xz yz pp pp pp
0.0000000000000000e+00 1.0289339721999999e+01 3.6749877000000000e-02
-5.6322168999999998e-02 1.0263123642000000e+01 1.3833062300000001e-01
0.0000000000000000e+00 1.0216793284000000e+01 -5.6322168999999998e-02
ITEM: ATOMS id type x y z 
1 1 5.35709 4.02315 3.74358 
5 2 5.15727 4.7823 4.55202 
4 1 4.70422 4.28737 5.41339 
3 1 6.13786 5.20059 4.72726 
2 1 4.46453 5.55388 4.13527 
ITEM: TIMESTEP
800
ITEM: NUMBER OF ATOMS
5
ITEM: BOX BOUNDS xy xz yz pp pp pp
0.0000000000000000e+00 1.0289339721999999e+01 3.6749877000000000e-02
-5.6322168999999998e-02 1.0263123642000000e+01 1.3833062300000001e-01
0.0000000000000000e+00 1.0216793284000000e+01 -5.6322168999999998e-02
ITEM: ATOMS id type x y z 
1 1 4.53718 4.29934 3.75037 
5 2 5.1669 4.77074 4.53885 
2 1 6.23377 4.58807 4.3958 
3 1 4.73492 4.43019 5.51595 
4 1 5.04231 5.88621 4.51538 
ITEM: TIMESTEP
900
ITEM: NUMBER OF ATOMS
5
ITEM: BOX BOUNDS xy xz yz pp pp pp
0.0000000000000000e+00 1.0289339721999999e+01 3.6749877000000000e-02
-5.6322168999999998e-02 1.0263123642000000e+01 1.3833062300000001e-01
0.0000000000000000e+00 1.0216793284000000e+01 -5.6322168999999998e-02
ITEM: ATOMS id type x y z 
1 1 5.41058 4.49404 3.47634 
5 2 5.15786 4.77176 4.54489 
2 1 4.15687 4.40516 4.80283 
4 1 5.93375 4.4306 5.28769 
3 1 5.15542 5.86167 4.53823 
ITEM: TIMESTEP
1000
ITEM: NUMBER OF ATOMS
5
ITEM: BOX BOUNDS xy xz yz pp pp pp
0.0000000000000000e+00 1.0289339721999999e+01 3.6749877000000000e-02
-5.6322168999999998e-02 1.0263123642000000e+01 1.3833062300000001e-01
0.0000000000000000e+00 1.0216793284000000e+01 -5.6322168999999998e-02
ITEM: ATOMS id type x y z 
1 1 4.77457 4.02764 3.90852 
5 2 5.16986 4.78068 4.52867 
3 1 5.5162 4.26982 5.47218 
2 1 5.87637 5.40486 3.96061 
4 1 4.34552 5.38219 4.95833 
ITEM: TIMESTEP
1100
ITEM: NUMBER OF ATOMS
5
ITEM: BOX BOUNDS xy xz yz pp pp pp
0.0000000000000000e+00 1.0289339721999999e+01 3.6749877000000000e-02
-5.6322168999999998e-02 1.0263123642000000e+01 1.3833062300000001e-01
0.0000000000000000e+00 1.0216793284000000e+01 -5.6322168999999998e-02
ITEM: ATOMS id type x y z 
1 1 5.24268 4.55435 3.45616 
5 2 5.15633 4.77368 4.53636 
4 1 6.15651 4.78016 4.99032 
2 1 4.54828 4.04392 5.05393 
3 1 4.72751 5.79004 4.70695 
ITEM: TIMESTEP
1200
ITEM: NUMBER OF ATOMS
5
ITEM: BOX BOUNDS xy xz yz pp pp pp
0.0000000000000000e+00 1.0289339721999999e+01 3.6749877000000000e-02
-5.6322168999999998e-02 1.0263123642000000e+01 1.3833062300000001e-01
0.0000000000000000e+00 1.0216793284000000e+01 -5.6322168999999998e-02
ITEM: ATOMS id type x y z 
1 1 4.82555 3.9867 3.8754 
5 2 5.15324 4.77521 4.53414 
3 1 5.75562 4.31348 5.35978 
2 1 5.82641 5.46951 4.00303 
4 1 4.30452 5.38043 4.99578 
ITEM: TIMESTEP
1300
ITEM: NUMBER OF ATOMS
5
ITEM: BOX BOUNDS xy xz yz pp pp pp
0.0000000000000000e+00 1.0289339721999999e+01 3.6749877000000000e-02
-5.6322168999999998e-02 1.0263123642000000e+01 1.3833062300000001e-01
0.0000000000000000e+00 1.0216793284000000e+01 -5.6322168999999998e-02
ITEM: ATOMS id type x y z 
1 1 5.23428 4.5187 3.45174 
5 2 5.16453 4.77467 4.55631 
4 1 6.12527 4.65553 5.0156 
2 1 4.37621 4.1603 4.97198 
3 1 4.84091 5.82208 4.52869 
ITEM: TIMESTEP
1400
ITEM: NUMBER OF ATOMS
5
ITEM: BOX BOUNDS xy xz yz pp pp pp
0.0000000000000000e+00 1.0289339721999999e+01 3.6749877000000000e-02
-5.6322168999999998e-02 1.0263123642000000e+01 1.3833062300000001e-01
0.0000000000000000e+00 1.0216793284000000e+01 -5.6322168999999998e-02
ITEM: ATOMS id type x y z 
1 1 4.80476 3.94732 3.87776 
5 2 5.15512 4.77832 4.53674 
3 1 5.63129 4.21927 5.36404 
2 1 5.9274 5.46555 4.12675 
4 1 4.32614 5.48069 4.83426 
ITEM: TIMESTEP
1500
ITEM: NUMBER OF ATOMS
5
ITEM: BOX BOUNDS xy xz yz pp pp pp
0.0000000000000000e+00 1.0289339721999999e+01 3.6749877000000000e-02
-5.6322168999999998e-02 1.0263123642000000e+01 1.3833062300000001e-01
0.0000000000000000e+00 1.0216793284000000e+01 -5.6322168999999998e-02
ITEM: ATOMS id type x y z 
1 1 5.19442 4.6937 3.45492 
5 2 5.16268 4.76438 4.54427 
2 1 4.54668 4.01823 5.09696 
4 1 6.22697 4.80296 4.94996 
3 1 4.63073 5.76517 4.61068 
ITEM: TIMESTEP
1600
ITEM: NUMBER OF ATOMS
5
ITEM: BOX BOUNDS xy xz yz pp pp pp
0.0000000000000000e+00 1.0289339721999999e+01 3.6749877000000000e-02
-5.6322168999999998e-02 1.0263123642000000e+01 1.3833062300000001e-01
0.0000000000000000e+00 1.0216793284000000e+01 -5.6322168999999998e-02
ITEM: ATOMS id type x y z 
1 1 5.0582 3.8323 3.93573 
5 2 5.17356 4.78508 4.53658 
4 1 4.24928 4.83289 5.19892 
3 1 6.11519 4.66168 5.13417 
2 1 5.04566 5.70478 3.93593 
ITEM: TIMESTEP
1700
ITEM: NUMBER OF ATOMS
5
ITEM: BOX BOUNDS xy xz yz pp pp pp
0.0000000000000000e+00 1.0289339721999999e+01 3.6749877000000000e-02
-5.6322168999999998e-02 1.0263123642000000e+01 1.3833062300000001e-01
0.0000000000000000e+00 1.0216793284000000e+01 -5.6322168999999998e-02
ITEM: ATOMS id type x y z 
1 1 4.64132 4.46808 3.6122 
5 2 5.15453 4.77518 4.53888 
2 1 6.08662 4.16708 4.70007 
3 1 4.4365 4.65335 5.37697 
4 1 5.53223 5.86193 4.48789 
ITEM: TIMESTEP
1800
ITEM: NUMBER OF ATOMS
5
ITEM: BOX BOUNDS xy xz yz pp pp pp
0.0000000000000000e+00 1.0289339721999999e+01 3.6749877000000000e-02
-5.6322168999999998e-02 1.0263123642000000e+01 1.3833062300000001e-01
0.0000000000000000e+00 1.0216793284000000e+01 -5.6322168999999998e-02
ITEM: ATOMS id type x y z 
1 1 5.34019 4.48977 3.46597 
5 2 5.16148 4.78125 4.53854 
2 1 4.27456 4.19758 4.89889 
4 1 5.99969 4.52011 5.20932 
3 1 4.99884 5.87012 4.60703 
ITEM: TIMESTEP
1900
ITEM: NUMBER OF ATOMS
5
ITEM: BOX BOUNDS xy xz yz pp pp pp
0.0000000000000000e+00 1.0289339721999999e+01 3.6749877000000000e-02
-5.6322168999999998e-02 1.0263123642000000e+01 1.3833062300000001e-01
0.0000000000000000e+00 1.0216793284000000e+01 -5.6322168999999998e-02
ITEM: ATOMS id type x y z 
1 1 5.2957 3.953 3.80683 
5 2 5.14863 4.78188 4.54284 
3 1 6.18144 5.06552 4.88264 
4 1 4.61015 4.45876 5.46012 
2 1 4.68019 5.59276 3.98009 
ITEM: TIMESTEP
2000
ITEM: NUMBER OF ATOMS
5
ITEM: BOX BOUNDS xy xz yz pp pp pp
0.0000000000000000e+00 1.0289339721999999e+01 3.6749877000000000e-02
-5.6322168999999998e-02 1.0263123642000000e+01 1.3833062300000001e-01
0.0000000000000000e+00 1.0216793284000000e+01 -5.6322168999999998e-02
ITEM: ATOMS id type x y z 
1 1 4.64367 4.12484 3.8303 
5 2 5.1605 4.77648 4.53384 
2 1 6.17269 5.0316 4.12327 
3 1 5.25895 4.28507 5.52188 
4 1 4.54965 5.69332 4.76213 
ITEM: TIMESTEP
2100
ITEM: NUMBER OF ATOMS
5
ITEM: BOX BOUNDS xy xz yz pp pp pp
0.0000000000000000e+00 1.0289339721999999e+01 3.6749877000000000e-02
-5.6322168999999998e-02 1.0263123642000000e+01 1.3833062300000001e-01
0.0000000000000000e+00 1.0216793284000000e+01 -5.6322168999999998e-02
ITEM: ATOMS id type x y z 
1 1 4.87409 4.65722 3.46466 
5 2 5.16 4.76731 4.54112 
2 1 5.54938 3.83165 4.94493 
4 1 5.89232 5.60161 4.5643 
3 1 4.31524 5.15439 5.17634 
ITEM: TIMESTEP
2200
ITEM: NUMBER OF ATOMS
5
ITEM: BOX BOUNDS xy xz yz pp pp pp
0.0000000000000000e+00 1.0289339721999999e+01 3.6749877000000000e-02
-5.6322168999999998e-02 1.0263123642000000e+01 1.3833062300000001e-01
0.0000000000000000e+00 1.0216793284000000e+01 -5.6322168999999998e-02
ITEM: ATOMS id type x y z 
1 1 5.43727 4.34386 3.57533 
5 2 5.16241 4.78608 4.53757 
2 1 4.10532 4.45966 4.78105 
4 1 5.88144 4.34127 5.27553 
3 1 5.17809 5.87484 4.561 
ITEM: TIMESTEP
2300
ITEM: NUMBER OF ATOMS
5
ITEM: BOX BOUNDS xy xz yz pp pp pp
0.0000000000000000e+00 1.0289339721999999e+01 3.6749877000000000e-02
-5.6322168999999998e-02 1.0263123642000000e+01 1.3833062300000001e-01
0.0000000000000000e+00 1.0216793284000000e+01 -5.6322168999999998e-02
ITEM: ATOMS id type x y z 
1 1 5.16794 3.90452 3.89246 
5 2 5.15727 4.77297 4.54171 
3 1 6.19558 5.05659 4.88833 
4 1 4.48302 4.54003 5.37072 
2 1 4.81727 5.67582 3.99171 
ITEM: TIMESTEP
2400
ITEM: NUMBER OF ATOMS
5
ITEM: BOX BOUNDS xy xz yz pp pp pp
0.0000000000000000e+00 1.0289339721999999e+01 3.6749877000000000e-02
-5.6322168999999998e-02 1.0263123642000000e+01 1.3833062300000001e-01
0.0000000000000000e+00 1.0216793284000000e+01 -5.6322168999999998e-02
ITEM: ATOMS id type x y z 
1 1 4.5909 4.16538 3.7944 
5 2 5.15443 4.78267 4.53715 
2 1 6.20634 4.90857 4.27104 
3 1 5.25184 4.2318 5.47399 
4 1 4.6488 5.75483 4.65852 
ITEM: TIMESTEP
2500
ITEM: NUMBER OF ATOMS
5
ITEM: BOX BOUNDS xy xz yz pp pp pp
0.0000000000000000e+00 1.0289339721999999e+01 3.6749877000000000e-02
-5.6322168999999998e-02 1.0263123642000000e+01 1.3833062300000001e-01
0.0000000000000000e+00 1.0216793284000000e+01 -5.6322168999999998e-02
ITEM: ATOMS id type x y z 
1 1 4.95288 4.66534 3.46745 
5 2 5.16082 4.78221 4.5476 
2 1 5.33706 3.77814 5.00459 
4 1 6.05824 5.39924 4.60137 
3 1 4.27301 5.2234 4.99908 
ITEM: TIMESTEP
2600
ITEM: NUMBER OF ATOMS
5
ITEM: BOX BOUNDS xy xz yz pp pp pp
0.0000000000000000e+00 1.0289339721999999e+01 3.6749877000000000e-02
-5.6322168999999998e-02 1.0263123642000000e+01 1.3833062300000001e-01
0.0000000000000000e+00 1.0216793284000000e+01 -5.6322168999999998e-02
ITEM: ATOMS id type x y z 
1 1 5.45145 4.24783 3.62668 
5 2 5.15631 4.7761 4.53917 
2 1 4.08008 4.82901 4.63532 
4 1 5.56056 4.24328 5.41404 
3 1 5.5832 5.81936 4.49762 
ITEM: TIMESTEP
2700
ITEM: NUMBER OF ATOMS
5
ITEM: BOX BOUNDS xy xz yz pp pp pp
0.0000000000000000e+00 1.0289339721999999e+01 3.6749877000000000e-02
-5.6322168999999998e-02 1.0263123642000000e+01 1.3833062300000001e-01
0.0000000000000000e+00 1.0216793284000000e+01 -5.6322168999999998e-02
ITEM: ATOMS id type x y z 
1 1 4.88469 3.9417 3.87494 
5 2 5.16846 4.77341 4.53797 
4 1 4.30863 5.06774 5.15341 
3 1 5.96077 4.49353 5.23871 
2 1 5.37539 5.6687 3.92102 
ITEM: TIMESTEP
2800
ITEM: NUMBER OF ATOMS
5
ITEM: BOX BOUNDS xy xz yz pp pp pp
0.0000000000000000e+00 1.0289339721999999e+01 3.6749877000000000e-02
-5.6322168999999998e-02 1.0263123642000000e+01 1.3833062300000001e-01
0.0000000000000000e+00 1.0216793284000000e+01 -5.6322168999999998e-02
ITEM: ATOMS id type x y z 
1 1 4.74624 4.40058 3.59688 
5 2 5.1507 4.78687 4.54237 
2 1 6.00883 4.11719 4.71109 
3 1 4.43719 4.66463 5.30127 
4 1 5.5503 5.82773 4.52605 
ITEM: TIMESTEP
2900
ITEM: NUMBER OF ATOMS
5
ITEM: BOX BOUNDS xy xz yz pp pp pp
0.0000000000000000e+00 1.0289339721999999e+01 3.6749877000000000e-02
-5.6322168999999998e-02 1.0263123642000000e+01 1.3833062300000001e-01
0.0000000000000000e+00 1.0216793284000000e+01 -5.6322168999999998e-02
ITEM: ATOMS id type x y z 
1 1 5.30826 4.40931 3.53239 
5 2 5.15976 4.77176 4.5439 
2 1 4.17373 4.44486 4.81036 
4 1 5.86441 4.46327 5.27174 
3 1 5.28747 5.87409 4.50238 
ITEM: TIMESTEP
3000
ITEM: NUMBER OF ATOMS
5
ITEM: BOX BOUNDS xy xz yz pp pp pp
0.0000000000000000e+00 1.0289339721999999e+01 3.6749877000000000e-02
-5.6322168999999998e-02 1.0263123642000000e+01 1.3833062300000001e-01
0.0000000000000000e+00 1.0216793284000000e+01 -5.6322168999999998e-02
ITEM: ATOMS id type x y z 
1 1 4.99412 3.92693 3.83622 
5 2 5.15332 4.77828 4.54373 
4 1 4.3177 5.00838 5.15775 
3 1 5.96531 4.49781 5.18984 
2 1 5.43398 5.68015 3.93519 
ITEM: TIMESTEP
3100
ITEM: NUMBER OF ATOMS
5
ITEM: BOX BOUNDS xy xz yz pp pp pp
0.0000000000000000e+00 1.0289339721999999e+01 3.6749877000000000e-02
-5.6322168999999998e-02 1.0263123642000000e+01 1.3833062300000001e-01
0.0000000000000000e+00 1.0216793284000000e+01 -5.6322168999999998e-02
ITEM: ATOMS id type x y z 
1 1 4.77114 4.54484 3.55166 
5 2 5.16768 4.77476 4.547 
2 1 5.66686 3.90502 4.92804 
3 1 4.27014 5.04688 5.11648 
4 1 5.83068 5.65872 4.48358 
ITEM: TIMESTEP
3200
ITEM: NUMBER OF ATOMS
5
ITEM: BOX BOUNDS xy xz yz pp pp pp
0.0000000000000000e+00 1.0289339721999999e+01 3.6749877000000000e-02
-5.6322168999999998e-02 1.0263123642000000e+01 1.3833062300000001e-01
0.0000000000000000e+00 1.0216793284000000e+01 -5.6322168999999998e-02
ITEM: ATOMS id type x y z 
1 1 5.41516 4.18039 3.67142 
5 2 5.16434 4.77246 4.54216 
4 1 5.11259 4.18193 5.45596 
3 1 5.9047 5.63181 4.54914 
2 1 4.14648 5.18897 4.46133 
ITEM: TIMESTEP
3300
ITEM: NUMBER OF ATOMS
5
ITEM: BOX BOUNDS xy xz yz pp pp pp
0.0000000000000000e+00 1.0289339721999999e+01 3.6749877000000000e-02
-5.6322168999999998e-02 1.0263123642000000e+01 1.3833062300000001e-01
0.0000000000000000e+00 1.0216793284000000e+01 -5.6322168999999998e-02
ITEM: ATOMS id type x y z 
1 1 4.59363 4.12812 3.84424 
5 2 5.16335 4.78416 4.53516 
2 1 6.23887 4.80683 4.32807 
3 1 4.99628 4.26102 5.48604 
4 1 4.762 5.84671 4.56344 
ITEM: TIMESTEP
3400
ITEM: NUMBER OF ATOMS
5
ITEM: BOX BOUNDS xy xz yz pp pp pp
0.0000000000000000e+00 1.0289339721999999e+01 3.6749877000000000e-02
-5.6322168999999998e-02 1.0263123642000000e+01 1.3833062300000001e-01
0.0000000000000000e+00 1.0216793284000000e+01 -5.6322168999999998e-02
ITEM: ATOMS id type x y z 
1 1 5.33419 4.57462 3.44949 
5 2 5.15989 4.77783 4.53861 
2 1 4.30065 4.22416 4.98552 
4 1 6.01431 4.43867 5.20791 
3 1 4.98321 5.88121 4.53748 
ITEM: TIMESTEP
3500
ITEM: NUMBER OF ATOMS
5
ITEM: BOX BOUNDS xy xz yz pp pp pp
0.0000000000000000e+00 1.0289339721999999e+01 3.6749877000000000e-02
-5.6322168999999998e-02 1.0263123642000000e+01 1.3833062300000001e-01
0.0000000000000000e+00 1.0216793284000000e+01 -5.6322168999999998e-02
ITEM: ATOMS id type x y z 
1 1 4.93935 3.88168 3.94498 
5 2 5.15309 4.78722 4.54056 
3 1 5.86891 4.35059 5.29721 
2 1 5.63743 5.58819 3.88559 
4 1 4.26826 5.18559 5.02928 
ITEM: TIMESTEP
3600
ITEM: NUMBER OF ATOMS
5
ITEM: BOX BOUNDS xy xz yz pp pp pp
0.0000000000000000e+00 1.0289339721999999e+01 3.6749877000000000e-02
-5.6322168999999998e-02 1.0263123642000000e+01 1.3833062300000001e-01
0.0000000000000000e+00 1.0216793284000000e+01 -5.6322168999999998e-02
ITEM: ATOMS id type x y z 
1 1 4.94168 4.68843 3.46049 
5 2 5.14853 4.77406 4.54217 
2 1 5.32645 3.80129 4.97252 
4 1 6.14387 5.28208 4.76394 
3 1 4.35663 5.39207 4.94079 
ITEM: TIMESTEP
3700
ITEM: NUMBER OF ATOMS
5
ITEM: BOX BOUNDS xy xz yz pp pp pp
0.0000000000000000e+00 1.0289339721999999e+01 3.6749877000000000e-02
-5.6322168999999998e-02 1.0263123642000000e+01 1.3833062300000001e-01
0.0000000000000000e+00 1.0216793284000000e+01 -5.6322168999999998e-02
ITEM: ATOMS id type x y z 
1 1 5.35735 4.00604 3.78542 
5 2 5.15307 4.77464 4.54317 
4 1 4.77933 4.4172 5.48325 
3 1 6.12838 5.24603 4.74165 
2 1 4.4491 5.48766 4.11537 
ITEM: TIMESTEP
3800
ITEM: NUMBER OF ATOMS
5
ITEM: BOX BOUNDS xy xz yz pp pp pp
0.0000000000000000e+00 1.0289339721999999e+01 3.6749877000000000e-02
-5.6322168999999998e-02 1.0263123642000000e+01 1.3833062300000001e-01
0.0000000000000000e+00 1.0216793284000000e+01 -5.6322168999999998e-02
ITEM: ATOMS id type x y z 
1 1 4.61222 4.29508 3.74543 
5 2 5.16047 4.77861 4.53787 
2 1 6.21407 4.61641 4.35638 
3 1 4.76704 4.3529 5.49302 
4 1 5.03202 5.84495 4.59441 
ITEM: TIMESTEP
3900
ITEM: NUMBER OF ATOMS
5
ITEM: BOX BOUNDS xy xz yz pp pp pp
0.0000000000000000e+00 1.0289339721999999e+01 3.6749877000000000e-02
-5.6322168999999998e-02 1.0263123642000000e+01 1.3833062300000001e-01
0.0000000000000000e+00 1.0216793284000000e+01 -5.6322168999999998e-02
ITEM: ATOMS id type x y z 
1 1 5.25213 4.61608 3.453 
5 2 5.16385 4.76728 4.54377 
2 1 4.45424 4.07562 4.98175 
4 1 6.14452 4.8172 5.06187 
3 1 4.73389 5.73638 4.62185 
ITEM: TIMESTEP
4000
ITEM: NUMBER OF ATOMS
5
ITEM: BOX BOUNDS xy xz yz pp pp pp
0.0000000000000000e+00 1.0289339721999999e+01 3.6749877000000000e-02
-5.6322168999999998e-02 1.0263123642000000e+01 1.3833062300000001e-01
0.0000000000000000e+00 1.0216793284000000e+01 -5.6322168999999998e-02
ITEM: ATOMS id type x y z 
1 1 5.262 3.93005 3.8835 
5 2 5.16039 4.7866 4.53582 
4 1 4.67569 4.39258 5.40291 
3 1 6.16725 5.14242 4.81142 
2 1 4.52141 5.54835 4.11599 
ITEM: TIMESTEP
4100
ITEM: NUMBER OF ATOMS
5
ITEM: BOX BOUNDS xy xz yz pp pp pp
0.0000000000000000e+00 1.0289339721999999e+01 3.6749877000000000e-02
-5.6322168999999998e-02 1.0263123642000000e+01 1.3833062300000001e-01
0.0000000000000000e+00 1.0216793284000000e+01 -5.6322168999999998e-02
ITEM: ATOMS id type x y z 
1 1 4.62615 4.11699 3.84408 
5 2 5.15896 4.77884 4.5368 
3 1 5.40787 4.24547 5.44619 
2 1 6.1116 5.14974 4.17129 
4 1 4.49787 5.59433 4.74052 
ITEM: TIMESTEP
4200
ITEM: NUMBER OF ATOMS
5
ITEM: BOX BOUNDS xy xz yz pp pp pp
0.0000000000000000e+00 1.0289339721999999e+01 3.6749877000000000e-02
-5.6322168999999998e-02 1.0263123642000000e+01 1.3833062300000001e-01
0.0000000000000000e+00 1.0216793284000000e+01 -5.6322168999999998e-02
ITEM: ATOMS id type x y z 
1 1 4.84455 4.59247 3.52839 
5 2 5.15047 4.77813 4.53846 
2 1 5.75339 3.97507 4.93265 
3 1 4.33389 4.8741 5.24476 
4 1 5.81355 5.67346 4.47644 
ITEM: TIMESTEP
4300
ITEM: NUMBER OF ATOMS
5
ITEM: BOX BOUNDS xy xz yz pp pp pp
0.0000000000000000e+00 1.0289339721999999e+01 3.6749877000000000e-02
-5.6322168999999998e-02 1.0263123642000000e+01 1.3833062300000001e-01
0.0000000000000000e+00 1.0216793284000000e+01 -5.6322168999999998e-02
ITEM: ATOMS id type x y z 
1 1 5.33459 4.50392 3.50906 
5 2 5.16037 4.77733 4.54281 
4 1 6.12913 4.67565 5.03583 
2 1 4.38261 4.13748 4.99654 
3 1 4.78023 5.8076 4.58858 
ITEM: TIMESTEP
4400
ITEM: NUMBER OF ATOMS
5
ITEM: BOX BOUNDS xy xz yz pp pp pp
0.0000000000000000e+00 1.0289339721999999e+01 3.6749877000000000e-02
-5.6322168999999998e-02 1.0263123642000000e+01 1.3833062300000001e-01
0.0000000000000000e+00 1.0216793284000000e+01 -5.6322168999999998e-02
ITEM: ATOMS id type x y z 
1 1 5.37135 4.06973 3.70274 
5 2 5.16079 4.77369 4.54209 
4 1 5.12834 4.24395 5.48709 
3 1 5.91493 5.55838 4.5903 
2 1 4.20694 5.29628 4.35848 
ITEM: TIMESTEP
4500
ITEM: NUMBER OF ATOMS
5
ITEM: BOX BOUNDS xy xz yz pp pp pp
0.0000000000000000e+00 1.0289339721999999e+01 3.6749877000000000e-02
-5.6322168999999998e-02 1.0263123642000000e+01 1.3833062300000001e-01
0.0000000000000000e+00 1.0216793284000000e+01 -5.6322168999999998e-02
ITEM: ATOMS id type x y z 
1 1 4.92463 3.94202 3.87393 
5 2 5.16502 4.77891 4.53491 
4 1 4.29747 4.9492 5.23597 
3 1 6.01556 4.55508 5.18936 
2 1 5.33306 5.65947 3.92559 
ITEM: TIMESTEP
4600
ITEM: NUMBER OF ATOMS
5
ITEM: BOX BOUNDS xy xz yz pp pp pp
0.0000000000000000e+00 1.0289339721999999e+01 3.6749877000000000e-02
-5.6322168999999998e-02 1.0263123642000000e+01 1.3833062300000001e-01
0.0000000000000000e+00 1.0216793284000000e+01 -5.6322168999999998e-02
ITEM: ATOMS id type x y z 
1 1 4.67855 4.24994 3.7247 
5 2 5.15721 4.78306 4.54169 
2 1 6.24737 4.73726 4.27622 
3 1 4.95435 4.26771 5.51095 
4 1 4.78418 5.80101 4.63158 
ITEM: TIMESTEP
4700
ITEM: NUMBER OF ATOMS
5
ITEM: BOX BOUNDS xy xz yz pp pp pp
0.0000000000000000e+00 1.0289339721999999e+01 3.6749877000000000e-02
-5.6322168999999998e-02 1.0263123642000000e+01 1.3833062300000001e-01
0.0000000000000000e+00 1.0216793284000000e+01 -5.6322168999999998e-02
ITEM: ATOMS id type x y z 
1 1 4.91077 4.54246 3.46607 
5 2 5.15141 4.78416 4.54112 
2 1 5.57607 3.83724 4.92986 
4 1 5.95371 5.53443 4.63216 
3 1 4.29348 5.12854 5.12222 
ITEM: TIMESTEP
4800
ITEM: NUMBER OF ATOMS
5
ITEM: BOX BOUNDS xy xz yz pp pp pp
0.0000000000000000e+00 1.0289339721999999e+01 3.6749877000000000e-02
-5.6322168999999998e-02 1.0263123642000000e+01 1.3833062300000001e-01
0.0000000000000000e+00 1.0216793284000000e+01 -5.6322168999999998e-02
ITEM: ATOMS id type x y z 
1 1 5.34458 4.47136 3.48904 
5 2 5.15996 4.77154 4.53784 
2 1 4.23497 4.3122 4.89345 
4 1 5.98522 4.52009 5.23807 
3 1 5.06676 5.89054 4.56913 
ITEM: TIMESTEP
4900
ITEM: NUMBER OF ATOMS
5
ITEM: BOX BOUNDS xy xz yz pp pp pp
0.0000000000000000e+00 1.0289339721999999e+01 3.6749877000000000e-02
-5.6322168999999998e-02 1.0263123642000000e+01 1.3833062300000001e-01
0.0000000000000000e+00 1.0216793284000000e+01 -5.6322168999999998e-02
ITEM: ATOMS id type x y z 
1 1 5.34615 4.03386 3.7594 
5 2 5.15925 4.76973 4.54709 
4 1 4.73587 4.35571 5.46295 
3 1 6.13598 5.28929 4.70212 
2 1 4.42205 5.53705 4.15417 
ITEM: TIMESTEP
5000
ITEM: NUMBER OF ATOMS
5
ITEM: BOX BOUNDS xy xz yz pp pp pp
0.0000000000000000e+00 1.0289339721999999e+01 3.6749877000000000e-02
-5.6322168999999998e-02 1.0263123642000000e+01 1.3833062300000001e-01
0.0000000000000000e+00 1.0216793284000000e+01 -5.6322168999999998e-02
ITEM: ATOMS id type x y z 
1 1 4.75613 3.94085 3.90244 
5 2 5.16513 4.78566 4.54065 
3 1 5.56829 4.22687 5.38952 
2 1 5.92305 5.39352 4.02915 
4 1 4.32199 5.46352 4.83487 
