
5 atoms
2 atom types
   0.0000000000   10.1142592220 xlo xhi
   0.0000000000   10.2631236420 ylo yhi
   0.0000000000   10.2167932840 zlo zhi
   0.0367498770    0.1383306230   -0.0563221690 xy xz yz

Atoms # atomic

     1      1    5.4513900000    4.3269700000    3.5664500000
     2      1    4.0585900000    4.9453900000    4.5274400000
     3      1    5.6173700000    5.7721300000    4.6488800000
     4      1    5.4695700000    4.1304600000    5.3741500000
     5      2    5.1628400000    4.7731400000    4.5439000000
