LAMMPS (3 Mar 2020)
# gas phase methane

units           metal
boundary        p p p
atom_style      atomic

neighbor        1.0 bin
neigh_modify    every 10 delay 0 check no

read_data	conf.lmp
  triclinic box = (0 0 0) to (10.1143 10.2631 10.2168) with tilt (0.0367499 0.138331 -0.0563222)
  1 by 2 by 2 MPI processor grid
  reading atoms ...
  5 atoms
  read_data CPU = 0.00117778 secs
mass 		1 1
mass		2 12

pair_style	deepmd frozen_model_0.pb frozen_model_1.pb out_file model_devi.out out_freq 100
pair_coeff

velocity        all create 250.0 23456789
fix             1 all nvt temp 250.0 250.0 0.5
timestep        0.001

thermo_style    custom step pe ke etotal temp press vol
thermo          100
dump		1 all custom 100 ch4.dump id type x y z

run             5000
Neighbor list info ...
  update every 10 steps, delay 0 steps, check no
  max neighbors/atom: 2000, page size: 100000
  master list distance cutoff = 7
  ghost atom cutoff = 7
  binsize = 3.5, bins = 3 3 3
  1 neighbor lists, perpetual/occasional/extra = 1 0 0
  (1) pair deepmd, perpetual
      attributes: , newton on
      pair build: full/bin/atomonly
      stencil: full/bin/3d
      bin: standard
Per MPI rank memory allocation (min/avg/max) = 2.699 | 3.543 | 3.824 Mbytes
Step PotEng KinEng TotEng Temp Press Volume 
       0    -23.98974   0.12926014    -23.86048          250   -553.35215    1060.5429 
     100   -23.953127  0.094007039    -23.85912    181.81752   -285.15697    1060.5429 
     200   -23.956071  0.099128338   -23.856943    191.72255    103.61669    1060.5429 
     300   -23.951906   0.10025755   -23.851649    193.90654   -357.11281    1060.5429 
     400   -23.947693   0.10354206   -23.844151    200.25905   -238.76632    1060.5429 
     500   -23.940634   0.10679451    -23.83384    206.54956   -189.93922    1060.5429 
     600    -23.93401   0.11646522   -23.817545    225.25355   -567.27556    1060.5429 
     700   -23.959627    0.1620325   -23.797595     313.3845   -273.92279    1060.5429 
     800     -23.9549   0.18437597   -23.770524    356.59865   -889.28872    1060.5429 
     900   -23.952528   0.21502852   -23.737499    415.88326   -752.39002    1060.5429 
    1000   -23.884354   0.18350349   -23.700851     354.9112    308.52355    1060.5429 
    1100   -23.992587   0.32095621    -23.67163    620.75632     85.73865    1060.5429 
    1200   -23.954836    0.3055362     -23.6493    590.93273   -616.41147    1060.5429 
    1300   -23.945968   0.29593771    -23.65003    572.36845    515.13543    1060.5429 
    1400   -23.898715   0.22266979   -23.676045    430.66211   -963.63285    1060.5429 
    1500   -23.866203   0.14449244   -23.721711    279.46054   -1349.5332    1060.5429 
    1600   -23.883697   0.10453992   -23.779157    202.18901   -1746.0529    1060.5429 
    1700     -23.9378   0.11211693   -23.825684    216.84357   -1570.2248    1060.5429 
    1800   -23.972791   0.11835161    -23.85444    228.90198   -1011.5201    1060.5429 
    1900   -23.955843  0.087924099   -23.867919    170.05261   -943.83707    1060.5429 
    2000   -23.966417  0.091794816   -23.874622     177.5389   -868.41553    1060.5429 
    2100   -23.953045  0.076261926   -23.876783    147.49698    -961.7131    1060.5429 
    2200   -23.960073  0.082825038   -23.877248     160.1906   -770.06064    1060.5429 
    2300   -23.963935  0.088191204   -23.875744    170.56921   -409.99549    1060.5429 
    2400   -23.953211  0.082249255   -23.870962    159.07698   -199.55236    1060.5429 
    2500   -23.982627   0.11705214   -23.865575    226.38868   -131.45765    1060.5429 
    2600   -23.990604    0.1352004   -23.855403    261.48895   -127.11559    1060.5429 
    2700   -23.978135   0.13353411     -23.8446     258.2662   -75.337792    1060.5429 
    2800   -23.923336  0.097178752   -23.826158    187.95189    621.85935    1060.5429 
    2900   -23.919302    0.1098068   -23.809495     212.3756    1362.9455    1060.5429 
    3000   -23.948596   0.15727864   -23.791317    304.19014    391.39058    1060.5429 
    3100   -23.975994   0.20010763   -23.775887      387.025    445.52024    1060.5429 
    3200   -23.941448   0.18177871   -23.759669    351.57532   -108.70742    1060.5429 
    3300   -23.933426   0.18527237   -23.748154    358.33236   -682.89797    1060.5429 
    3400   -23.885611   0.14388286   -23.741729    278.28156    -1524.376    1060.5429 
    3500   -23.911351   0.16778976   -23.743561    324.51952   -1095.1469    1060.5429 
    3600   -23.904452   0.15015728   -23.754295    290.41682    107.04434    1060.5429 
    3700    -23.97637   0.20195624   -23.774414    390.60037    688.85142    1060.5429 
    3800   -23.949369   0.15031442   -23.799055    290.72074    875.22259    1060.5429 
    3900   -23.937268   0.10960645   -23.827661     211.9881    576.25697    1060.5429 
    4000   -23.959422    0.1007743   -23.858648    194.90597    1079.8862    1060.5429 
    4100   -23.964157  0.081513048   -23.882644     157.6531    1063.6447    1060.5429 
    4200   -23.946469  0.048953587   -23.897515    94.680357      794.649    1060.5429 
    4300   -23.986191  0.078360747    -23.90783    151.55628    277.53647    1060.5429 
    4400   -23.991142  0.079674609   -23.911467     154.0974     37.05694    1060.5429 
    4500   -23.983728   0.07204327   -23.911685    139.33775   -107.01887    1060.5429 
    4600   -23.965973  0.057121344   -23.908852    110.47749   -351.59565    1060.5429 
    4700   -23.960199  0.055095121   -23.905104     106.5586   -685.52652    1060.5429 
    4800      -23.983  0.082994168   -23.900006    160.51771   -690.49502    1060.5429 
    4900    -23.96193  0.070330865   -23.891599    136.02581   -755.26029    1060.5429 
    5000   -23.938914  0.057085101   -23.881829    110.40739   -935.51994    1060.5429 
Loop time of 15.7543 on 4 procs for 5000 steps with 5 atoms

Performance: 27.421 ns/day, 0.875 hours/ns, 317.374 timesteps/s
85.3% CPU use with 4 MPI tasks x no OpenMP threads

MPI task timing breakdown:
Section |  min time  |  avg time  |  max time  |%varavg| %total
---------------------------------------------------------------
Pair    | 1.2142     | 7.1717     | 11.416     | 140.2 | 45.52
Neigh   | 0.00072014 | 0.0015674  | 0.0022086  |   1.4 |  0.01
Comm    | 4.2141     | 7.7064     | 12.578     | 109.5 | 48.92
Output  | 0.0023542  | 0.003369   | 0.0063994  |   3.0 |  0.02
Modify  | 0.11285    | 0.86858    | 1.958      |  84.9 |  5.51
Other   |            | 0.00259    |            |       |  0.02

Nlocal:    1.25 ave 2 max 0 min
Histogram: 1 0 0 0 0 1 0 0 0 2
Nghost:    58.75 ave 60 max 58 min
Histogram: 2 0 0 0 0 1 0 0 0 1
Neighs:    0 ave 0 max 0 min
Histogram: 4 0 0 0 0 0 0 0 0 0

Total # of neighbors = 0
Ave neighs/atom = 0
Neighbor list builds = 500
Dangerous builds not checked

Please see the log.cite file for references relevant to this simulation

Total wall time: 0:00:16
